 Gaussian 16, Revision C.01,
 Gaussian 16:  ES64L-G16RevC.01  3-Jul-2019

 ---------------------
 # um062x Def2SVP Freq
 ---------------------

 -------------------
 p0_C6H12NO_hess_g16
 -------------------
 Symbolic Z-matrix:
 Charge =  0 Multiplicity = 2

                         Standard orientation:
 ---------------------------------------------------------------------
 Center     Atomic      Atomic             Coordinates (Angstroms)
 Number     Number       Type             X           Y           Z
 ---------------------------------------------------------------------
      1          6           0       -1.381732    1.360286    0.764312
      2          6           0       -1.548096    0.075702    0.023697
      3          6           0       -2.922773   -0.412225   -0.287488
      4          6           0       -0.410195   -0.409083   -0.828643
      5          7           0        0.874409   -0.367277   -0.162680
      6          6           0        1.060442   -1.205393    1.000672
      7          6           0        1.880013    0.447811   -0.586749
      8          8           0        2.969451    0.545078   -0.076873
      9          1           0       -2.094833    1.436623    1.598542
     10          1           0       -0.362957    1.471072    1.164376
     11          1           0       -1.566368    2.233516    0.106582
     12          1           0       -3.586958   -0.318956    0.585087
     13          1           0       -2.919113   -1.464440   -0.608991
     14          1           0       -3.392404    0.173065   -1.103359
     15          1           0       -0.322190    0.205023   -1.748232
     16          1           0       -0.617708   -1.440399   -1.167883
     17          1           0        2.083978   -1.061235    1.363918
     18          1           0        0.344998   -0.937447    1.794628
     19          1           0        0.907968   -2.265136    0.741004
     20          1           0        1.583164    1.036039   -1.486735
 ---------------------------------------------------------------------

 SCF Done:  E(UM062X) =  -365.343628725     A.U. after   18 cycles

 The electronic state is 2-A.
 Alpha  occ. eigenvalues --  -19.59449 -14.78695 -10.64768 -10.60044 -10.58293
 Alpha  occ. eigenvalues --  -10.56937 -10.55844 -10.55470  -1.14310  -1.04074
 Alpha  occ. eigenvalues --   -0.90311  -0.81185  -0.78613  -0.78057  -0.64891
 Alpha  occ. eigenvalues --   -0.62951  -0.59173  -0.55699  -0.54446  -0.51878
 Alpha  occ. eigenvalues --   -0.50046  -0.49097  -0.47556  -0.46171  -0.45098
 Alpha  occ. eigenvalues --   -0.45067  -0.44744  -0.42487  -0.42189  -0.32812
 Alpha  occ. eigenvalues --   -0.30232  -0.24416
 Alpha virt. eigenvalues --    0.07402   0.08210   0.12235   0.12366   0.13339
 Alpha virt. eigenvalues --    0.15001   0.15510   0.17073   0.17541   0.17925
 Alpha virt. eigenvalues --    0.19313   0.19800   0.21884   0.22423   0.24659

  Beta  occ. eigenvalues --  -19.59445 -14.78667 -10.64767 -10.60119 -10.58288
  Beta  occ. eigenvalues --  -10.56188 -10.55914 -10.55536  -1.14295  -1.03929
  Beta  occ. eigenvalues --   -0.88472  -0.81020  -0.78272  -0.77857  -0.64414
  Beta  occ. eigenvalues --   -0.61754  -0.58469  -0.55191  -0.53896  -0.49960
  Beta  occ. eigenvalues --   -0.49724  -0.48621  -0.47180  -0.45434  -0.45008
  Beta  occ. eigenvalues --   -0.44739  -0.44536  -0.42070  -0.41712  -0.32709
  Beta  occ. eigenvalues --   -0.30062
  Beta virt. eigenvalues --   -0.00300   0.07394   0.07893   0.11933   0.12155
  Beta virt. eigenvalues --    0.13135   0.14975   0.15304   0.16892   0.17421
  Beta virt. eigenvalues --    0.17944   0.19249   0.19778   0.21813   0.23210

 Mulliken charges and spin densities:
               1          2
     1  C   -0.037198  -0.087119
     2  C   -0.269704   1.021359
     3  C   -0.029734  -0.087796
     4  C    0.140911  -0.073789
     5  N   -0.368103   0.006199
     6  C    0.048049   0.011404
     7  C    0.234725   0.001050
     8  O   -0.304718   0.001262
     9  H    0.049819   0.011165
    10  H    0.056379   0.010504
    11  H    0.049910   0.056913
    12  H    0.049720   0.015126
    13  H    0.044168   0.008195
    14  H    0.052859   0.058186
    15  H    0.048739   0.048318
    16  H    0.037243   0.005336
    17  H    0.083585  -0.000450
    18  H    0.053544  -0.003400
    19  H    0.047981  -0.000993
    20  H    0.011825  -0.001469
 Sum of Mulliken charges =  -0.00000   1.00000

 Dipole moment (field-independent basis, Debye):
    X=             -3.8663    Y=             -0.8890    Z=             -0.5890  Tot=              4.0107
 Quadrupole moment (field-independent basis, Debye-Ang):
   XX=            -62.0832   YY=            -49.0477   ZZ=            -47.9945
   XY=             -3.1729   XZ=             -0.0596   YZ=             -0.9533

  Exact polarizability:      89.570       4.951      68.899       1.799      -1.919      66.444
 Approx polarizability:      96.992       7.741      79.099       3.662      -2.389      78.182

                      1                      2                      3
                      A                      A                      A
 Frequencies --     47.7444                56.7765               100.6441
 Red. masses --      3.4790                 2.9989                 1.5409
 Frc consts  --      0.0047                 0.0057                 0.0092
 IR Inten    --      1.6912                 0.4493                 0.2511

                      4                      5                      6
                      A                      A                      A
 Frequencies --    116.2287               132.7709               149.6540
 Red. masses --      1.0501                 1.1294                 1.4713
 Frc consts  --      0.0084                 0.0117                 0.0194
 IR Inten    --      0.1088                 0.1416                 0.0879

                      7                      8                      9
                      A                      A                      A
 Frequencies --    278.5572               286.7296               310.4477
 Red. masses --      2.7733                 2.7113                 2.9988
 Frc consts  --      0.1268                 0.1313                 0.1703
 IR Inten    --      2.2234                 4.2932                 5.6956

                     10                     11                     12
                      A                      A                      A
 Frequencies --    353.2581               367.4433               390.5301
 Red. masses --      2.6894                 2.5873                 1.9720
 Frc consts  --      0.1977                 0.2058                 0.1772
 IR Inten    --     16.0477                 8.4244                 1.2681

                     13                     14                     15
                      A                      A                      A
 Frequencies --    470.0875               726.7867               808.7410
 Red. masses --      3.5931                 4.1423                 3.3344
 Frc consts  --      0.4678                 1.2891                 1.2849
 IR Inten    --      3.8471                 9.0459                 1.8515

                     16                     17                     18
                      A                      A                      A
 Frequencies --    899.2912               915.5547               925.5091
 Red. masses --      2.0933                 1.8557                 1.3178
 Frc consts  --      0.9974                 0.9165                 0.6651
 IR Inten    --      0.5900                 5.9117                 1.4124

                     19                     20                     21
                      A                      A                      A
 Frequencies --    976.2742               995.9731              1040.9977
 Red. masses --      1.3945                 1.6397                 1.6428
 Frc consts  --      0.7831                 0.9583                 1.0489
 IR Inten    --      2.1017                11.9042                 0.5581

                     22                     23                     24
                      A                      A                      A
 Frequencies --   1052.3027              1097.6050              1145.5242
 Red. masses --      1.6459                 1.5838                 1.2971
 Frc consts  --      1.0738                 1.1242                 1.0028
 IR Inten    --      2.8713                89.5634                 2.3487

                     25                     26                     27
                      A                      A                      A
 Frequencies --   1222.8830              1270.7375              1309.4730
 Red. masses --      1.2640                 1.7991                 2.5251
 Frc consts  --      1.1137                 1.7117                 2.5511
 IR Inten    --     30.9723                 6.2188                 6.9835

                     28                     29                     30
                      A                      A                      A
 Frequencies --   1316.6423              1378.7154              1395.9182
 Red. masses --      2.8551                 1.5428                 1.3367
 Frc consts  --      2.9161                 1.7279                 1.5347
 IR Inten    --     27.6453                 7.2396                 5.2836

                     31                     32                     33
                      A                      A                      A
 Frequencies --   1408.1801              1423.8976              1430.6976
 Red. masses --      1.4962                 1.1956                 1.2788
 Frc consts  --      1.7481                 1.4282                 1.5422
 IR Inten    --      4.7659                20.6619                15.9732

                     34                     35                     36
                      A                      A                      A
 Frequencies --   1443.7647              1450.0944              1453.4103
 Red. masses --      1.0693                 1.1575                 1.3830
 Frc consts  --      1.3133                 1.4341                 1.7213
 IR Inten    --     10.0583                 8.2453                62.7546

                     37                     38                     39
                      A                      A                      A
 Frequencies --   1456.4821              1460.3150              1472.8456
 Red. masses --      1.1700                 1.1279                 1.0887
 Frc consts  --      1.4623                 1.4172                 1.3915
 IR Inten    --      3.3616                19.7090                22.0033

                     40                     41                     42
                      A                      A                      A
 Frequencies --   1473.6848              1520.2440              1872.6213
 Red. masses --      1.1025                 1.7740                 9.5125
 Frc consts  --      1.4107                 2.4156                19.6538
 IR Inten    --      4.7763                83.4383               529.8649

                     43                     44                     45
                      A                      A                      A
 Frequencies --   2980.5773              2992.5728              2993.1275
 Red. masses --      1.0799                 1.0657                 1.0542
 Frc consts  --      5.6522                 5.6229                 5.5645
 IR Inten    --     30.7403                36.4847                29.3635

                     46                     47                     48
                      A                      A                      A
 Frequencies --   2997.1821              3047.0990              3051.7073
 Red. masses --      1.0575                 1.0379                 1.0969
 Frc consts  --      5.5970                 5.6779                 6.0188
 IR Inten    --     67.8740                23.4597                36.7331

                     49                     50                     51
                      A                      A                      A
 Frequencies --   3091.4657              3098.3152              3119.3093
 Red. masses --      1.0811                 1.0803                 1.1059
 Frc consts  --      6.0876                 6.1103                 6.3398
 IR Inten    --     16.5982                12.5915                21.4074

                     52                     53                     54
                      A                      A                      A
 Frequencies --   3144.1493              3151.0030              3199.7016
 Red. masses --      1.1042                 1.1042                 1.1016
 Frc consts  --      6.4314                 6.4596                 6.6453
 IR Inten    --     15.5263                11.9992                 0.1197

 - Thermochemistry -
 -------------------
 Temperature   298.150 Kelvin.  Pressure   1.00000 Atm.
 Atom     1 has atomic number  6 and mass  12.00000

 Molecular mass:   114.09189 amu.
 Principal axes and moments of inertia in atomic units:
                           1         2         3
     Eigenvalues --   449.312241652.250671736.72068
           X            0.99990  -0.01242   0.00687
           Y            0.01251   0.99984  -0.01267
           Z           -0.00671   0.01275   0.99990
 This molecule is an asymmetric top.
 Rotational symmetry number  1.
 Warning -- assumption of classical behavior for rotation
           may cause significant error
 Rotational temperatures (Kelvin)      0.19277     0.05242     0.04987
 Rotational constants (GHZ):           4.01667     1.09229     1.03917
 Zero-point vibrational energy     456209.4 (Joules/Mol)
                                  109.03665 (Kcal/Mol)
 Warning -- explicit consideration of  13 degrees of freedom as
           vibrations may cause significant error
 Vibrational temperatures:     68.69    81.69   144.80   167.23   191.03
          (Kelvin)            215.32   400.78   412.54   446.66   508.26
                              528.67   561.89   676.35  1045.68  1163.60
                             1293.88  1317.28  1331.60  1404.64  1432.98
                             1497.76  1514.03  1579.21  1648.15  1759.46
                             1828.31  1884.04  1894.35  1983.66  2008.41
                             2026.06  2048.67  2058.45  2077.26  2086.36
                             2091.13  2095.55  2101.07  2119.10  2120.30
                             2187.29  2694.28  4288.39  4305.64  4306.44
                             4312.28  4384.10  4390.73  4447.93  4457.78
                             4487.99  4523.73  4533.59  4603.66

 Zero-point correction=                           0.173761 (Hartree/Particle)
 Thermal correction to Energy=                    0.184216
 Thermal correction to Enthalpy=                  0.185160
 Thermal correction to Gibbs Free Energy=         0.136778
 Sum of electronic and zero-point Energies=           -365.169868
 Sum of electronic and thermal Energies=              -365.159413
 Sum of electronic and thermal Enthalpies=            -365.158468
 Sum of electronic and thermal Free Energies=         -365.206851

                     E (Thermal)             CV                S
                      KCal/Mol        Cal/Mol-Kelvin    Cal/Mol-Kelvin
 Total                  115.597             35.284            101.829
 Electronic               0.000              0.000              1.377
 Translational            0.889              2.981             40.111
 Rotational               0.889              2.981             28.646
 Vibrational            113.820             29.322             31.694
 Vibration     1          0.595              1.978              4.909
 Vibration     2          0.596              1.975              4.566
 Vibration     3          0.604              1.949              3.442
 Vibration     4          0.608              1.936              3.162
 Vibration     5          0.613              1.921              2.906
 Vibration     6          0.618              1.903              2.677
 Vibration     7          0.679              1.713              1.543
 Vibration     8          0.684              1.698              1.493
 Vibration     9          0.699              1.654              1.360
 Vibration    10          0.729              1.569              1.152
 Vibration    11          0.740              1.539              1.090
 Vibration    12          0.758              1.490              0.998
 Vibration    13          0.827              1.316              0.737

 Normal termination of Gaussian 16 at Mon Sep 11 12:23:16 2023.
