 Gaussian 16, Revision C.01,
 Gaussian 16:  ES64L-G16RevC.01  3-Jul-2019

 ---------------------
 # um062x Def2SVP Freq
 ---------------------

 -------------------
 p1_C4H8N2O_hess_g16
 -------------------
 Symbolic Z-matrix:
 Charge =  0 Multiplicity = 1

                         Standard orientation:
 ---------------------------------------------------------------------
 Center     Atomic      Atomic             Coordinates (Angstroms)
 Number     Number       Type             X           Y           Z
 ---------------------------------------------------------------------
      1          6           0        2.078860   -0.301586   -0.078195
      2          6           0        0.676871   -0.474881    0.489632
      3          6           0       -0.237873   -1.392999   -0.279751
      4          7           0       -1.437990   -0.978752   -0.354121
      5          8           0       -1.539829    0.235554    0.284931
      6          6           0       -0.216173    0.778483    0.504385
      7          7           0        0.157552    1.739712   -0.479949
      8          1           0        2.625384   -1.254270   -0.039999
      9          1           0        2.052829    0.037483   -1.121881
     10          1           0        2.641406    0.443985    0.498534
     11          1           0        0.748349   -0.867903    1.518503
     12          1           0        0.028965   -2.353801   -0.723185
     13          1           0       -0.251709    1.266029    1.486613
     14          1           0        0.111154    1.334618   -1.414525
     15          1           0       -0.484796    2.528608   -0.461444
 ---------------------------------------------------------------------

 SCF Done:  E(UM062X) =  -341.495943026     A.U. after   15 cycles

 The electronic state is 1-A.
 Alpha  occ. eigenvalues --  -19.66078 -14.80745 -14.75145 -10.63363 -10.58669
 Alpha  occ. eigenvalues --  -10.57580 -10.55930  -1.21608  -1.00127  -0.94696
 Alpha  occ. eigenvalues --   -0.87635  -0.77570  -0.67922  -0.66524  -0.61261
 Alpha  occ. eigenvalues --   -0.57975  -0.54349  -0.52269  -0.49089  -0.47531
 Alpha  occ. eigenvalues --   -0.46586  -0.43723  -0.42286  -0.40470  -0.37205
 Alpha  occ. eigenvalues --   -0.32668  -0.30896
 Alpha virt. eigenvalues --    0.03820   0.09071   0.11066   0.12497   0.13997
 Alpha virt. eigenvalues --    0.15655   0.16485   0.17932   0.20052   0.20567
 Alpha virt. eigenvalues --    0.22344   0.24514   0.28095   0.33843   0.34467

  Beta  occ. eigenvalues --  -19.66078 -14.80745 -14.75145 -10.63363 -10.58669
  Beta  occ. eigenvalues --  -10.57580 -10.55930  -1.21608  -1.00127  -0.94696
  Beta  occ. eigenvalues --   -0.87635  -0.77570  -0.67922  -0.66524  -0.61261
  Beta  occ. eigenvalues --   -0.57975  -0.54349  -0.52269  -0.49089  -0.47531
  Beta  occ. eigenvalues --   -0.46586  -0.43723  -0.42286  -0.40470  -0.37205
  Beta  occ. eigenvalues --   -0.32668  -0.30896
  Beta virt. eigenvalues --    0.03820   0.09071   0.11066   0.12497   0.13997
  Beta virt. eigenvalues --    0.15655   0.16485   0.17932   0.20052   0.20567
  Beta virt. eigenvalues --    0.22344   0.24514   0.28095   0.33843   0.34467

 Mulliken charges and spin densities:
               1          2
     1  C    0.015672   0.000000
     2  C   -0.234317   0.000000
     3  C   -0.024707   0.000000
     4  N    0.031830   0.000000
     5  O   -0.339134   0.000000
     6  C    0.183798   0.000000
     7  N   -0.188556   0.000000
     8  H    0.046809   0.000000
     9  H    0.038331   0.000000
    10  H    0.057420   0.000000
    11  H    0.072420   0.000000
    12  H    0.053638   0.000000
    13  H    0.043205   0.000000
    14  H    0.115490   0.000000
    15  H    0.128101   0.000000
 Sum of Mulliken charges =  -0.00000   0.00000

 Dipole moment (field-independent basis, Debye):
    X=              2.5390    Y=              0.2486    Z=              0.0912  Tot=              2.5527
 Quadrupole moment (field-independent basis, Debye-Ang):
   XX=            -49.0208   YY=            -39.1589   ZZ=            -39.6070
   XY=             -4.9748   XZ=              0.0763   YZ=             -0.5153

  Exact polarizability:      57.624      -4.127      59.802       0.287       2.643      46.935
 Approx polarizability:      71.903      -6.517      69.348      -0.084       3.991      58.311

                      1                      2                      3
                      A                      A                      A
 Frequencies --    101.3252               212.2602               282.4426
 Red. masses --      3.4430                 1.1365                 2.1075
 Frc consts  --      0.0208                 0.0302                 0.0991
 IR Inten    --      1.2277                 0.2320                 3.0222

                      4                      5                      6
                      A                      A                      A
 Frequencies --    284.8993               347.9108               433.6498
 Red. masses --      2.6848                 1.3381                 2.6937
 Frc consts  --      0.1284                 0.0954                 0.2985
 IR Inten    --      3.2474                37.2048                41.9616

                      7                      8                      9
                      A                      A                      A
 Frequencies --    514.8535               590.4483               737.9080
 Red. masses --      3.7933                 4.0526                 2.3540
 Frc consts  --      0.5924                 0.8324                 0.7552
 IR Inten    --      6.9536                14.8313                21.8057

                     10                     11                     12
                      A                      A                      A
 Frequencies --    815.0830               856.4920               869.5846
 Red. masses --      2.3993                 1.7188                 1.6564
 Frc consts  --      0.9392                 0.7429                 0.7380
 IR Inten    --     54.1601                 7.5852                 2.4549

                     13                     14                     15
                      A                      A                      A
 Frequencies --    877.2147               942.3380               967.5157
 Red. masses --      2.9106                 2.5541                 4.0285
 Frc consts  --      1.3196                 1.3363                 2.2218
 IR Inten    --     53.2849               121.1877                47.1571

                     16                     17                     18
                      A                      A                      A
 Frequencies --    991.3309              1026.3115              1106.4136
 Red. masses --      2.3725                 1.6205                 1.6728
 Frc consts  --      1.3737                 1.0057                 1.2065
 IR Inten    --     42.9760                27.5980                 1.3768

                     19                     20                     21
                      A                      A                      A
 Frequencies --   1132.7132              1171.3488              1243.6686
 Red. masses --      1.5535                 1.5912                 1.9566
 Frc consts  --      1.1743                 1.2863                 1.7830
 IR Inten    --      4.4952                 4.2970                18.8089

                     22                     23                     24
                      A                      A                      A
 Frequencies --   1252.9665              1311.6833              1325.2933
 Red. masses --      1.5076                 1.5509                 1.6765
 Frc consts  --      1.3945                 1.5722                 1.7349
 IR Inten    --      6.5509                 7.3755                 5.9746

                     25                     26                     27
                      A                      A                      A
 Frequencies --   1372.1701              1404.7401              1436.7617
 Red. masses --      1.5302                 1.4381                 1.4288
 Frc consts  --      1.6975                 1.6720                 1.7377
 IR Inten    --      3.5478                 1.2512                 7.9358

                     28                     29                     30
                      A                      A                      A
 Frequencies --   1469.0629              1472.3170              1634.4922
 Red. masses --      1.1022                 1.0659                 1.1173
 Frc consts  --      1.4015                 1.3613                 1.7587
 IR Inten    --     14.2500                10.2374                51.1846

                     31                     32                     33
                      A                      A                      A
 Frequencies --   1742.1573              3060.7442              3077.4597
 Red. masses --      9.5947                 1.0852                 1.0370
 Frc consts  --     17.1576                 5.9896                 5.7865
 IR Inten    --     10.0959                 8.6450                16.9744

                     34                     35                     36
                      A                      A                      A
 Frequencies --   3147.0912              3166.1092              3177.0192
 Red. masses --      1.0907                 1.1041                 1.1045
 Frc consts  --      6.3649                 6.5212                 6.5682
 IR Inten    --     19.6686                13.9435                10.9517

                     37                     38                     39
                      A                      A                      A
 Frequencies --   3242.5635              3535.3859              3622.5575
 Red. masses --      1.0970                 1.0517                 1.0929
 Frc consts  --      6.7956                 7.7451                 8.4498
 IR Inten    --      0.9093                 8.5808                13.4536

 - Thermochemistry -
 -------------------
 Temperature   298.150 Kelvin.  Pressure   1.00000 Atm.
 Atom     1 has atomic number  6 and mass  12.00000

 Molecular mass:   100.06366 amu.
 Principal axes and moments of inertia in atomic units:
                           1         2         3
     Eigenvalues --   466.38967 595.96489 904.88773
           X            0.99367  -0.11233  -0.00227
           Y            0.11232   0.99365  -0.00628
           Z            0.00296   0.00599   0.99998
 This molecule is an asymmetric top.
 Rotational symmetry number  1.
 Warning -- assumption of classical behavior for rotation
           may cause significant error
 Rotational temperatures (Kelvin)      0.18571     0.14533     0.09572
 Rotational constants (GHZ):           3.86960     3.02827     1.99444
 Zero-point vibrational energy     334692.9 (Joules/Mol)
                                   79.99353 (Kcal/Mol)
 Warning -- explicit consideration of   8 degrees of freedom as
           vibrations may cause significant error
 Vibrational temperatures:    145.78   305.40   406.37   409.91   500.57
          (Kelvin)            623.93   740.76   849.52  1061.69  1172.72
                             1232.30  1251.14  1262.12  1355.81  1392.04
                             1426.30  1476.63  1591.88  1629.72  1685.31
                             1789.36  1802.74  1887.22  1906.80  1974.25
                             2021.11  2067.18  2113.65  2118.34  2351.67
                             2506.58  4403.73  4427.78  4527.96  4555.32
                             4571.02  4665.33  5086.63  5212.05

 Zero-point correction=                           0.127478 (Hartree/Particle)
 Thermal correction to Energy=                    0.134152
 Thermal correction to Enthalpy=                  0.135096
 Thermal correction to Gibbs Free Energy=         0.097066
 Sum of electronic and zero-point Energies=           -341.368465
 Sum of electronic and thermal Energies=              -341.361791
 Sum of electronic and thermal Enthalpies=            -341.360847
 Sum of electronic and thermal Free Energies=         -341.398877

                     E (Thermal)             CV                S
                      KCal/Mol        Cal/Mol-Kelvin    Cal/Mol-Kelvin
 Total                   84.182             24.941             80.041
 Electronic               0.000              0.000              0.000
 Translational            0.889              2.981             39.720
 Rotational               0.889              2.981             27.022
 Vibrational             82.404             18.980             13.299
 Vibration     1          0.604              1.948              3.429
 Vibration     2          0.643              1.822              2.024
 Vibration     3          0.681              1.706              1.519
 Vibration     4          0.683              1.702              1.504
 Vibration     5          0.726              1.580              1.176
 Vibration     6          0.794              1.397              0.847
 Vibration     7          0.870              1.217              0.622
 Vibration     8          0.948              1.052              0.466

 Normal termination of Gaussian 16 at Mon Sep 11 12:24:09 2023.
