 Gaussian 16, Revision C.01,
 Gaussian 16:  ES64L-G16RevC.01  3-Jul-2019

 ---------------------
 # um062x Def2SVP Freq
 ---------------------

 -------------------
 r0_C6H13NO_hess_g16
 -------------------
 Symbolic Z-matrix:
 Charge =  0 Multiplicity = 1

                         Standard orientation:
 ---------------------------------------------------------------------
 Center     Atomic      Atomic             Coordinates (Angstroms)
 Number     Number       Type             X           Y           Z
 ---------------------------------------------------------------------
      1          6           0       -2.899778    0.184174   -0.462924
      2          6           0       -1.545851    0.135403    0.240297
      3          6           0       -1.323579   -1.199345    0.944171
      4          6           0       -0.431033    0.414063   -0.775446
      5          7           0        0.902288    0.373609   -0.219596
      6          6           0        1.271345    1.362705    0.768267
      7          6           0        1.788525   -0.606534   -0.552195
      8          8           0        2.899921   -0.730338   -0.098077
      9          1           0       -3.056948    1.147619   -0.970118
     10          1           0       -2.971004   -0.612384   -1.220739
     11          1           0       -3.721955    0.039975    0.251885
     12          1           0       -1.525167    0.939163    0.996945
     13          1           0       -2.126297   -1.402644    1.667250
     14          1           0       -0.365850   -1.218356    1.484082
     15          1           0       -1.313632   -2.023698    0.212164
     16          1           0       -0.484893   -0.339068   -1.579283
     17          1           0       -0.601434    1.399229   -1.245892
     18          1           0        2.353099    1.296443    0.930049
     19          1           0        1.009750    2.370320    0.410363
     20          1           0        0.760435    1.189352    1.729807
     21          1           0        1.370746   -1.301321   -1.317750
 ---------------------------------------------------------------------

 SCF Done:  E(UM062X) =  -366.002734173     A.U. after   15 cycles

 The electronic state is 1-A.
 Alpha  occ. eigenvalues --  -19.59441 -14.78668 -10.64726 -10.59666 -10.58553
 Alpha  occ. eigenvalues --  -10.56531 -10.55447 -10.55047  -1.14304  -1.04012
 Alpha  occ. eigenvalues --   -0.90422  -0.81017  -0.77832  -0.77340  -0.65593
 Alpha  occ. eigenvalues --   -0.64096  -0.59643  -0.56066  -0.53842  -0.53116
 Alpha  occ. eigenvalues --   -0.49591  -0.48561  -0.47181  -0.45894  -0.45102
 Alpha  occ. eigenvalues --   -0.45017  -0.44501  -0.41249  -0.40536  -0.39557
 Alpha  occ. eigenvalues --   -0.32706  -0.29910
 Alpha virt. eigenvalues --    0.07268   0.07822   0.10345   0.11778   0.13211
 Alpha virt. eigenvalues --    0.14719   0.15272   0.16297   0.17145   0.17790
 Alpha virt. eigenvalues --    0.18820   0.19402   0.20478   0.22299   0.23080

  Beta  occ. eigenvalues --  -19.59441 -14.78668 -10.64726 -10.59666 -10.58553
  Beta  occ. eigenvalues --  -10.56531 -10.55447 -10.55047  -1.14304  -1.04012
  Beta  occ. eigenvalues --   -0.90422  -0.81017  -0.77832  -0.77340  -0.65593
  Beta  occ. eigenvalues --   -0.64096  -0.59643  -0.56066  -0.53842  -0.53116
  Beta  occ. eigenvalues --   -0.49591  -0.48561  -0.47181  -0.45894  -0.45102
  Beta  occ. eigenvalues --   -0.45017  -0.44501  -0.41249  -0.40536  -0.39557
  Beta  occ. eigenvalues --   -0.32706  -0.29910
  Beta virt. eigenvalues --    0.07268   0.07822   0.10345   0.11778   0.13211
  Beta virt. eigenvalues --    0.14719   0.15272   0.16297   0.17145   0.17790
  Beta virt. eigenvalues --    0.18820   0.19402   0.20478   0.22299   0.23080

 Mulliken charges and spin densities:
               1          2
     1  C   -0.036582   0.000000
     2  C   -0.214166   0.000000
     3  C   -0.044607   0.000000
     4  C    0.102259   0.000000
     5  N   -0.358437   0.000000
     6  C    0.043485   0.000000
     7  C    0.235406   0.000000
     8  O   -0.305717   0.000000
     9  H    0.041669   0.000000
    10  H    0.036975   0.000000
    11  H    0.047275   0.000000
    12  H    0.039599   0.000000
    13  H    0.047074   0.000000
    14  H    0.053592   0.000000
    15  H    0.033404   0.000000
    16  H    0.035602   0.000000
    17  H    0.041934   0.000000
    18  H    0.083631   0.000000
    19  H    0.047560   0.000000
    20  H    0.056626   0.000000
    21  H    0.013420   0.000000
 Sum of Mulliken charges =  -0.00000   0.00000

 Dipole moment (field-independent basis, Debye):
    X=             -3.6431    Y=              1.3851    Z=             -0.3178  Tot=              3.9104
 Quadrupole moment (field-independent basis, Debye-Ang):
   XX=            -62.8454   YY=            -49.8606   ZZ=            -49.2647
   XY=              3.9926   XZ=             -0.0940   YZ=              1.4536

  Exact polarizability:      88.068      -4.325      71.455       3.144       3.128      66.468
 Approx polarizability:      96.075      -7.556      83.517       4.819       4.204      79.016

                      1                      2                      3
                      A                      A                      A
 Frequencies --     53.4533                71.9946               107.9682
 Red. masses --      3.8966                 2.9658                 1.7518
 Frc consts  --      0.0066                 0.0091                 0.0120
 IR Inten    --      1.1343                 0.6686                 0.9959

                      4                      5                      6
                      A                      A                      A
 Frequencies --    164.2218               227.0072               254.5578
 Red. masses --      1.3399                 1.0739                 1.2137
 Frc consts  --      0.0213                 0.0326                 0.0463
 IR Inten    --      0.3579                 0.0354                 0.2733

                      7                      8                      9
                      A                      A                      A
 Frequencies --    282.3289               307.1449               353.5139
 Red. masses --      2.2853                 2.6108                 2.9551
 Frc consts  --      0.1073                 0.1451                 0.2176
 IR Inten    --      0.3085                 4.0365                13.9281

                     10                     11                     12
                      A                      A                      A
 Frequencies --    364.8523               401.7280               434.7469
 Red. masses --      2.4428                 2.3849                 1.7272
 Frc consts  --      0.1916                 0.2268                 0.1923
 IR Inten    --     12.6457                 1.4205                 0.5798

                     13                     14                     15
                      A                      A                      A
 Frequencies --    462.5911               729.5433               838.9948
 Red. masses --      3.4110                 4.0179                 2.5306
 Frc consts  --      0.4301                 1.2600                 1.0495
 IR Inten    --      4.7285                 7.8682                 2.3072

                     16                     17                     18
                      A                      A                      A
 Frequencies --    895.0713               914.9176               927.0783
 Red. masses --      1.6976                 1.8005                 1.2707
 Frc consts  --      0.8013                 0.8880                 0.6435
 IR Inten    --      4.2275                 5.0140                 0.6860

                     19                     20                     21
                      A                      A                      A
 Frequencies --    969.4729               975.5926              1040.3659
 Red. masses --      1.6249                 1.6568                 1.6435
 Frc consts  --      0.8998                 0.9291                 1.0481
 IR Inten    --      1.8453                 3.5677                 0.8158

                     22                     23                     24
                      A                      A                      A
 Frequencies --   1099.1672              1133.4373              1150.0249
 Red. masses --      1.5357                 1.3994                 1.7254
 Frc consts  --      1.0932                 1.0592                 1.3445
 IR Inten    --     72.1117                17.4508                20.4589

                     25                     26                     27
                      A                      A                      A
 Frequencies --   1163.7088              1196.5885              1264.1788
 Red. masses --      1.8970                 1.6862                 1.3814
 Frc consts  --      1.5136                 1.4225                 1.3008
 IR Inten    --      2.4371                 0.4768                18.9174

                     28                     29                     30
                      A                      A                      A
 Frequencies --   1319.7142              1323.3610              1357.0852
 Red. masses --      1.2844                 2.6894                 1.2955
 Frc consts  --      1.3179                 2.7750                 1.4057
 IR Inten    --      1.5117                31.3623                 5.4506

                     31                     32                     33
                      A                      A                      A
 Frequencies --   1389.0103              1400.4113              1409.6560
 Red. masses --      1.5525                 1.4148                 1.3816
 Frc consts  --      1.7648                 1.6348                 1.6176
 IR Inten    --     12.6356                 0.9126                 6.3130

                     34                     35                     36
                      A                      A                      A
 Frequencies --   1426.1995              1433.8375              1454.2049
 Red. masses --      1.2063                 1.3303                 1.3806
 Frc consts  --      1.4456                 1.6114                 1.7202
 IR Inten    --     22.9024                24.6688                44.0524

                     37                     38                     39
                      A                      A                      A
 Frequencies --   1460.4407              1462.2017              1470.5874
 Red. masses --      1.1186                 1.0754                 1.0884
 Frc consts  --      1.4057                 1.3547                 1.3868
 IR Inten    --     13.6900                 4.5217                 1.0806

                     40                     41                     42
                      A                      A                      A
 Frequencies --   1475.9981              1479.3735              1486.8342
 Red. masses --      1.0875                 1.0555                 1.0948
 Frc consts  --      1.3958                 1.3610                 1.4259
 IR Inten    --     20.3123                 5.0287                21.2208

                     43                     44                     45
                      A                      A                      A
 Frequencies --   1521.8901              1870.8763              2987.5899
 Red. masses --      1.7326                 9.4896                 1.0865
 Frc consts  --      2.3644                19.5700                 5.7137
 IR Inten    --     78.0081               520.6733                68.6000

                     46                     47                     48
                      A                      A                      A
 Frequencies --   3036.6478              3045.5834              3051.1397
 Red. masses --      1.0633                 1.0431                 1.0500
 Frc consts  --      5.7771                 5.7006                 5.7591
 IR Inten    --     44.1838                16.4725                 7.1977

                     49                     50                     51
                      A                      A                      A
 Frequencies --   3053.1497              3056.6522              3101.2790
 Red. masses --      1.0463                 1.0598                 1.1022
 Frc consts  --      5.7466                 5.8342                 6.2458
 IR Inten    --     20.9682                32.9943                22.5949

                     52                     53                     54
                      A                      A                      A
 Frequencies --   3121.0585              3137.0405              3139.6205
 Red. masses --      1.1047                 1.1022                 1.1020
 Frc consts  --      6.3402                 6.3906                 6.3998
 IR Inten    --     21.2664                 7.5566                36.9662

                     55                     56                     57
                      A                      A                      A
 Frequencies --   3153.9744              3155.7458              3195.8294
 Red. masses --      1.1040                 1.1042                 1.1016
 Frc consts  --      6.4706                 6.4788                 6.6289
 IR Inten    --     15.0704                21.6634                 0.0871

 - Thermochemistry -
 -------------------
 Temperature   298.150 Kelvin.  Pressure   1.00000 Atm.
 Atom     1 has atomic number  6 and mass  12.00000

 Molecular mass:   115.09971 amu.
 Principal axes and moments of inertia in atomic units:
                           1         2         3
     Eigenvalues --   467.569971634.101431736.36626
           X            0.99976   0.01963   0.00965
           Y           -0.01989   0.99939   0.02859
           Z           -0.00909  -0.02877   0.99954
 This molecule is an asymmetric top.
 Rotational symmetry number  1.
 Warning -- assumption of classical behavior for rotation
           may cause significant error
 Rotational temperatures (Kelvin)      0.18524     0.05300     0.04988
 Rotational constants (GHZ):           3.85983     1.10442     1.03938
 Zero-point vibrational energy     495022.2 (Joules/Mol)
                                  118.31314 (Kcal/Mol)
 Warning -- explicit consideration of  13 degrees of freedom as
           vibrations may cause significant error
 Vibrational temperatures:     76.91   103.58   155.34   236.28   326.61
          (Kelvin)            366.25   406.21   441.91   508.63   524.94
                              578.00   625.50   665.57  1049.65  1207.13
                             1287.81  1316.36  1333.86  1394.86  1403.66
                             1496.85  1581.46  1630.76  1654.63  1674.32
                             1721.62  1818.87  1898.77  1904.02  1952.54
                             1998.48  2014.88  2028.18  2051.98  2062.97
                             2092.28  2101.25  2103.78  2115.85  2123.63
                             2128.49  2139.22  2189.66  2691.77  4298.48
                             4369.06  4381.92  4389.91  4392.80  4397.84
                             4462.05  4490.51  4513.50  4517.21  4537.87
                             4540.41  4598.09

 Zero-point correction=                           0.188544 (Hartree/Particle)
 Thermal correction to Energy=                    0.198390
 Thermal correction to Enthalpy=                  0.199334
 Thermal correction to Gibbs Free Energy=         0.153531
 Sum of electronic and zero-point Energies=           -365.814190
 Sum of electronic and thermal Energies=              -365.804344
 Sum of electronic and thermal Enthalpies=            -365.803400
 Sum of electronic and thermal Free Energies=         -365.849203

                     E (Thermal)             CV                S
                      KCal/Mol        Cal/Mol-Kelvin    Cal/Mol-Kelvin
 Total                  124.492             34.884             96.401
 Electronic               0.000              0.000              0.000
 Translational            0.889              2.981             40.137
 Rotational               0.889              2.981             28.674
 Vibrational            122.714             28.923             27.590
 Vibration     1          0.596              1.976              4.685
 Vibration     2          0.598              1.967              4.098
 Vibration     3          0.606              1.943              3.305
 Vibration     4          0.623              1.886              2.501
 Vibration     5          0.651              1.800              1.902
 Vibration     6          0.665              1.755              1.699
 Vibration     7          0.681              1.706              1.520
 Vibration     8          0.697              1.660              1.378
 Vibration     9          0.730              1.568              1.150
 Vibration    10          0.738              1.545              1.101
 Vibration    11          0.767              1.466              0.956
 Vibration    12          0.795              1.394              0.843
 Vibration    13          0.820              1.333              0.759

 1\1\GINC-R1I3N10\Freq\UM062X\def2SVP\C6H13N1O1\UZG38MN\11-Sep-2023\0\\
 # um062x Def2SVP Freq\\r0_C6H13NO_hess_g16\\0,1\C,-1.987078,-0.59529,1
 .360917\C,-0.936497,-0.487123,0.258829\C,-1.460229,0.288466,-0.945564\
 C,0.332284,0.164017,0.823113\N,1.392538,0.334471,-0.143923\C,2.003062,
 -0.84392,-0.717545\C,1.780046,1.568229,-0.573337\O,2.624553,1.786942,-
 1.407438\H,-1.606314,-1.154535,2.228349\H,-2.286761,0.406044,1.709316\
 H,-2.889473,-1.106887,0.99805\H,-0.677677,-1.509634,-0.067448\H,-2.373
 657,-0.174017,-1.345925\H,-0.716978,0.330869,-1.754816\H,-1.705522,1.3

 Normal termination of Gaussian 16 at Mon Sep 11 12:20:39 2023.
