 Gaussian 16, Revision C.01,
 Gaussian 16:  ES64L-G16RevC.01  3-Jul-2019

 ---------------------
 # um062x Def2SVP Freq
 ---------------------

 -------------------
 r1_C4H7N2O_hess_g16
 -------------------
 Symbolic Z-matrix:
 Charge =  0 Multiplicity = 2

                         Standard orientation:
 ---------------------------------------------------------------------
 Center     Atomic      Atomic             Coordinates (Angstroms)
 Number     Number       Type             X           Y           Z
 ---------------------------------------------------------------------
      1          6           0        2.078724   -0.401245   -0.070447
      2          6           0        0.702093   -0.512457    0.481934
      3          6           0       -0.259639   -1.384722   -0.303153
      4          7           0       -1.437561   -0.913421   -0.365697
      5          8           0       -1.482000    0.293920    0.292133
      6          6           0       -0.135687    0.779307    0.506999
      7          7           0        0.278098    1.722669   -0.476941
      8          1           0        2.476998    0.568545   -0.362326
      9          1           0        2.714252   -1.285302   -0.115598
     10          1           0        0.735296   -0.934732    1.506488
     11          1           0       -0.030428   -2.347676   -0.761282
     12          1           0       -0.149034    1.263275    1.491237
     13          1           0       -0.345067    2.526765   -0.480753
     14          1           0        0.257268    1.307725   -1.408362
 ---------------------------------------------------------------------

 SCF Done:  E(UM062X) =  -340.826440869     A.U. after   18 cycles

 The electronic state is 2-A.
 Alpha  occ. eigenvalues --  -19.66385 -14.81037 -14.75401 -10.63774 -10.59201
 Alpha  occ. eigenvalues --  -10.58263 -10.57202  -1.21953  -1.00441  -0.95120
 Alpha  occ. eigenvalues --   -0.87984  -0.76844  -0.67830  -0.66876  -0.61446
 Alpha  occ. eigenvalues --   -0.58315  -0.54834  -0.52436  -0.50727  -0.47202
 Alpha  occ. eigenvalues --   -0.47119  -0.43901  -0.41376  -0.38212  -0.33317
 Alpha  occ. eigenvalues --   -0.31275  -0.27216
 Alpha virt. eigenvalues --    0.03970   0.09569   0.11729   0.12763   0.14486
 Alpha virt. eigenvalues --    0.15070   0.17172   0.18619   0.20141   0.21419
 Alpha virt. eigenvalues --    0.25334   0.28310   0.33627   0.34286   0.37967

  Beta  occ. eigenvalues --  -19.66379 -14.81032 -14.75403 -10.63772 -10.59109
  Beta  occ. eigenvalues --  -10.58339 -10.56452  -1.21921  -1.00412  -0.94883
  Beta  occ. eigenvalues --   -0.87077  -0.74743  -0.66818  -0.66292  -0.61135
  Beta  occ. eigenvalues --   -0.58049  -0.54589  -0.51742  -0.49829  -0.47017
  Beta  occ. eigenvalues --   -0.46118  -0.43540  -0.41190  -0.37790  -0.33069
  Beta  occ. eigenvalues --   -0.31143
  Beta virt. eigenvalues --   -0.01615   0.04336   0.09512   0.11459   0.12845
  Beta virt. eigenvalues --    0.14853   0.15201   0.17388   0.18616   0.20293
  Beta virt. eigenvalues --    0.21570   0.26013   0.28491   0.33534   0.34456

 Mulliken charges and spin densities:
               1          2
     1  C   -0.075359   1.111880
     2  C   -0.179963  -0.081723
     3  C   -0.021913   0.034681
     4  N    0.033488   0.000278
     5  O   -0.338762   0.001883
     6  C    0.184720   0.001711
     7  N   -0.188560   0.000399
     8  H    0.085712  -0.051829
     9  H    0.064549  -0.053910
    10  H    0.083986   0.037892
    11  H    0.057110  -0.001055
    12  H    0.046663  -0.000816
    13  H    0.129772   0.000293
    14  H    0.118557   0.000315
 Sum of Mulliken charges =  -0.00000   1.00000

 Dipole moment (field-independent basis, Debye):
    X=              2.3186    Y=              0.1057    Z=              0.1002  Tot=              2.3231
 Quadrupole moment (field-independent basis, Debye-Ang):
   XX=            -48.7298   YY=            -37.4885   ZZ=            -39.6069
   XY=             -4.5005   XZ=             -0.3098   YZ=             -0.8485

  Exact polarizability:      57.123      -3.956      58.883      -0.923       2.221      43.361
 Approx polarizability:      71.600      -6.425      67.818      -1.493       3.559      53.887

                      1                      2                      3
                      A                      A                      A
 Frequencies --     61.9644               133.0348               275.3699
 Red. masses --      1.4657                 1.9289                 2.2268
 Frc consts  --      0.0033                 0.0201                 0.0995
 IR Inten    --      4.2702                 1.4995                 7.4107

                      4                      5                      6
                      A                      A                      A
 Frequencies --    294.9621               357.9097               412.6131
 Red. masses --      2.4319                 1.3291                 1.6005
 Frc consts  --      0.1247                 0.1003                 0.1605
 IR Inten    --      0.7452                30.0371                45.6367

                      7                      8                      9
                      A                      A                      A
 Frequencies --    436.8659               518.9689               602.6825
 Red. masses --      2.3722                 4.0459                 4.4926
 Frc consts  --      0.2667                 0.6420                 0.9614
 IR Inten    --     48.7710                 6.8832                14.9402

                     10                     11                     12
                      A                      A                      A
 Frequencies --    745.6013               810.1246               852.0667
 Red. masses --      2.3647                 2.2087                 1.9881
 Frc consts  --      0.7745                 0.8540                 0.8504
 IR Inten    --     31.1518                45.9356                20.1538

                     13                     14                     15
                      A                      A                      A
 Frequencies --    870.5730               886.1720               944.2412
 Red. masses --      1.9602                 2.7708                 1.9802
 Frc consts  --      0.8753                 1.2820                 1.0402
 IR Inten    --     31.4434                29.1764                69.0961

                     16                     17                     18
                      A                      A                      A
 Frequencies --    964.4375              1001.3384              1043.3803
 Red. masses --      7.3184                 2.6416                 1.8354
 Frc consts  --      4.0106                 1.5606                 1.1772
 IR Inten    --     69.1134                65.7684                 2.2580

                     19                     20                     21
                      A                      A                      A
 Frequencies --   1139.8919              1152.8735              1233.0684
 Red. masses --      1.2747                 1.5359                 1.4375
 Frc consts  --      0.9759                 1.2027                 1.2877
 IR Inten    --      8.2340                 1.3564                10.3617

                     22                     23                     24
                      A                      A                      A
 Frequencies --   1245.9209              1269.8176              1313.9774
 Red. masses --      2.4474                 1.7668                 1.5316
 Frc consts  --      2.2384                 1.6785                 1.5580
 IR Inten    --     28.5945                 3.4045                 5.5095

                     25                     26                     27
                      A                      A                      A
 Frequencies --   1366.7255              1428.5341              1443.2103
 Red. masses --      1.5901                 1.5332                 1.3850
 Frc consts  --      1.7500                 1.8434                 1.6997
 IR Inten    --      4.8427                 4.8742                13.0496

                     28                     29                     30
                      A                      A                      A
 Frequencies --   1629.3982              1739.8013              2999.4972
 Red. masses --      1.1189                 9.6113                 1.0825
 Frc consts  --      1.7502                17.1408                 5.7384
 IR Inten    --     50.8053                11.2378                 8.5253

                     31                     32                     33
                      A                      A                      A
 Frequencies --   3151.4991              3190.7116              3250.7711
 Red. masses --      1.0908                 1.0513                 1.0973
 Frc consts  --      6.3830                 6.3060                 6.8319
 IR Inten    --     18.2008                 6.9147                 0.8488

                     34                     35                     36
                      A                      A                      A
 Frequencies --   3317.4071              3532.9414              3625.3788
 Red. masses --      1.1208                 1.0518                 1.0930
 Frc consts  --      7.2674                 7.7350                 8.4640
 IR Inten    --      0.2193                10.1025                16.0193

 - Thermochemistry -
 -------------------
 Temperature   298.150 Kelvin.  Pressure   1.00000 Atm.
 Atom     1 has atomic number  6 and mass  12.00000

 Molecular mass:    99.05584 amu.
 Principal axes and moments of inertia in atomic units:
                           1         2         3
     Eigenvalues --   459.79671 568.88730 879.14832
           X            0.99391  -0.11013  -0.00405
           Y            0.11009   0.99388  -0.00952
           Z            0.00507   0.00901   0.99995
 This molecule is an asymmetric top.
 Rotational symmetry number  1.
 Warning -- assumption of classical behavior for rotation
           may cause significant error
 Rotational temperatures (Kelvin)      0.18837     0.15225     0.09852
 Rotational constants (GHZ):           3.92509     3.17241     2.05283
 Zero-point vibrational energy     294542.9 (Joules/Mol)
                                   70.39745 (Kcal/Mol)
 Warning -- explicit consideration of   9 degrees of freedom as
           vibrations may cause significant error
 Vibrational temperatures:     89.15   191.41   396.20   424.38   514.95
          (Kelvin)            593.66   628.55   746.68   867.13  1072.75
                             1165.59  1225.93  1252.56  1275.00  1358.55
                             1387.61  1440.70  1501.19  1640.05  1658.73
                             1774.11  1792.60  1826.98  1890.52  1966.41
                             2055.34  2076.46  2344.34  2503.19  4315.61
                             4534.30  4590.72  4677.13  4773.01  5083.11
                             5216.11

 Zero-point correction=                           0.112185 (Hartree/Particle)
 Thermal correction to Energy=                    0.119302
 Thermal correction to Enthalpy=                  0.120246
 Thermal correction to Gibbs Free Energy=         0.080400
 Sum of electronic and zero-point Energies=           -340.714255
 Sum of electronic and thermal Energies=              -340.707139
 Sum of electronic and thermal Enthalpies=            -340.706195
 Sum of electronic and thermal Free Energies=         -340.746041

                     E (Thermal)             CV                S
                      KCal/Mol        Cal/Mol-Kelvin    Cal/Mol-Kelvin
 Total                   74.863             25.995             83.864
 Electronic               0.000              0.000              1.377
 Translational            0.889              2.981             39.690
 Rotational               0.889              2.981             26.933
 Vibrational             73.086             20.033             15.864
 Vibration     1          0.597              1.972              4.394
 Vibration     2          0.613              1.920              2.902
 Vibration     3          0.677              1.719              1.562
 Vibration     4          0.689              1.683              1.445
 Vibration     5          0.733              1.559              1.131
 Vibration     6          0.776              1.443              0.917
 Vibration     7          0.797              1.390              0.837
 Vibration     8          0.874              1.208              0.612
 Vibration     9          0.961              1.026              0.445

 Normal termination of Gaussian 16 at Mon Sep 11 12:21:29 2023.
