 Gaussian 16, Revision C.01,
 Gaussian 16:  ES64L-G16RevC.01  3-Jul-2019

 ----------------------------------------------------------------------
 # um062x Def2SVP Freq Opt=(TS, CalcFC, NoEigenTest, MaxCycles=100, Max
 Step=10, NoTrustUpdate, RecalcFC=30) Geom=ModRedun NoSymm
 ----------------------------------------------------------------------

 ------------------------------------------------
 TS_ts_guess_3iwCru_template_11-21_1-11_optts_g16
 ------------------------------------------------
 Symbolic Z-matrix:
 Charge =  0 Multiplicity = 2

 SCF Done:  E(UM062X) =  -706.815346946     A.U. after   19 cycles
 SCF Done:  E(UM062X) =  -706.815131668     A.U. after   16 cycles
 SCF Done:  E(UM062X) =  -706.815145446     A.U. after   13 cycles
 SCF Done:  E(UM062X) =  -706.815144934     A.U. after   10 cycles
 Optimization completed.
    -- Stationary point found.
 Normal termination of Gaussian 16 at Mon Sep 11 11:36:15 2023.

 -------------------------------------------------------------------
 #N Geom=AllCheck Guess=TCheck SCRF=Check GenChk UM062X/def2SVP Freq
 -------------------------------------------------------------------

 Structure from the checkpoint file:  "/gpfsssd/jobscratch/uzg38mn_1841822/Gau-1782316.chk"
 ------------------------------------------------
 TS_ts_guess_3iwCru_template_11-21_1-11_optts_g16
 ------------------------------------------------
 Charge =  0 Multiplicity = 2

                          Input orientation:
 ---------------------------------------------------------------------
 Center     Atomic      Atomic             Coordinates (Angstroms)
 Number     Number       Type             X           Y           Z
 ---------------------------------------------------------------------
      1          6           0        5.207764   -1.156342    1.373999
      2          6           0        6.239647   -1.026628    0.274432
      3          6           0        5.830451   -0.092298   -0.842508
      4          6           0        7.627178   -0.752816    0.836013
      5          7           0        8.654931   -0.586642   -0.165340
      6          6           0        9.022416   -1.731903   -0.965618
      7          6           0        9.195116    0.628570   -0.453260
      8          8           0        9.999136    0.843438   -1.328197
      9          1           0        5.544196   -1.844842    2.164592
     10          1           0        5.021880   -0.178103    1.851204
     11          1           0        4.245385   -1.518082    0.982174
     12          1           0        6.237627   -2.215660   -0.291080
     13          1           0        4.840713   -0.362033   -1.240298
     14          1           0        6.552602   -0.108589   -1.672384
     15          1           0        5.768765    0.948726   -0.477364
     16          1           0        7.588044    0.177112    1.434050
     17          1           0        7.906425   -1.574663    1.515357
     18          1           0       10.004505   -1.545536   -1.415701
     19          1           0        9.052909   -2.624888   -0.324214
     20          1           0        8.295674   -1.907317   -1.778895
     21          1           0        8.817297    1.426441    0.228379
     22          6           0        5.816389   -3.382864   -0.972334
     23          6           0        6.872887   -4.463448   -1.059638
     24          6           0        6.258931   -5.738346   -1.593558
     25          7           0        6.081072   -6.635435   -0.708099
     26          8           0        6.584142   -6.204568    0.492083
     27          6           0        7.375576   -5.010318    0.289311
     28          7           0        7.277649   -4.112981    1.386500
     29          1           0        4.930347   -3.669233   -0.387412
     30          1           0        5.532735   -2.958188   -1.943598
     31          1           0        7.713472   -4.126450   -1.679443
     32          1           0        5.888133   -5.899019   -2.606809
     33          1           0        8.424611   -5.338135    0.191752
     34          1           0        7.632465   -4.548603    2.235244
     35          1           0        6.302777   -3.865118    1.552471
 ---------------------------------------------------------------------

 SCF Done:  E(UM062X) =  -706.815144934     A.U. after    1 cycles

 Alpha  occ. eigenvalues --  -19.66931 -19.59503 -14.81454 -14.78697 -14.76997
 Alpha  occ. eigenvalues --  -10.64754 -10.64463 -10.59599 -10.59454 -10.58634
 Alpha  occ. eigenvalues --  -10.58561 -10.57750 -10.57492 -10.56398 -10.55804
 Alpha  occ. eigenvalues --   -1.22571  -1.14371  -1.04108  -1.01889  -0.95339
 Alpha  occ. eigenvalues --   -0.91178  -0.88369  -0.81228  -0.78638  -0.78117
 Alpha  occ. eigenvalues --   -0.77954  -0.68627  -0.67729  -0.65339  -0.63793
 Alpha  occ. eigenvalues --   -0.62665  -0.59710  -0.59087  -0.56815  -0.55674
 Alpha  occ. eigenvalues --   -0.54443  -0.53917  -0.53037  -0.50243  -0.49804
 Alpha  occ. eigenvalues --   -0.48896  -0.47624  -0.47143  -0.46728  -0.45765
 Alpha  occ. eigenvalues --   -0.45613  -0.45471  -0.45116  -0.44716  -0.42588
 Alpha  occ. eigenvalues --   -0.42180  -0.41611  -0.41490  -0.38773  -0.33948
 Alpha  occ. eigenvalues --   -0.32804  -0.31503  -0.29962  -0.23863
 Alpha virt. eigenvalues --    0.03670   0.06450   0.07127   0.08483   0.09985
 Alpha virt. eigenvalues --    0.10983   0.12261   0.12506   0.13178   0.13476
 Alpha virt. eigenvalues --    0.14985   0.15288   0.15621   0.16466   0.16945

  Beta  occ. eigenvalues --  -19.66921 -19.59504 -14.81409 -14.78694 -14.76998
  Beta  occ. eigenvalues --  -10.64753 -10.64451 -10.59623 -10.59408 -10.58634
  Beta  occ. eigenvalues --  -10.58590 -10.57144 -10.56957 -10.56429 -10.55832
  Beta  occ. eigenvalues --   -1.22498  -1.14370  -1.04056  -1.01851  -0.95143
  Beta  occ. eigenvalues --   -0.90327  -0.87865  -0.81146  -0.78476  -0.77865
  Beta  occ. eigenvalues --   -0.76985  -0.68094  -0.67415  -0.64938  -0.63117
  Beta  occ. eigenvalues --   -0.62528  -0.59147  -0.58992  -0.56297  -0.55383
  Beta  occ. eigenvalues --   -0.54177  -0.53590  -0.52280  -0.49983  -0.49242
  Beta  occ. eigenvalues --   -0.48677  -0.47457  -0.46804  -0.46383  -0.45563
  Beta  occ. eigenvalues --   -0.45240  -0.45022  -0.44959  -0.44533  -0.41965
  Beta  occ. eigenvalues --   -0.41773  -0.41296  -0.40198  -0.37892  -0.33640
  Beta  occ. eigenvalues --   -0.32782  -0.31341  -0.29834
  Beta virt. eigenvalues --   -0.04890   0.04324   0.06556   0.07121   0.08500
  Beta virt. eigenvalues --    0.09960   0.10919   0.12275   0.12539   0.13189
  Beta virt. eigenvalues --    0.13635   0.15058   0.15283   0.15502   0.16571

 Mulliken charges and spin densities:
               1          2
     1  C   -0.039174  -0.024486
     2  C   -0.244616   0.486698
     3  C   -0.032858  -0.022413
     4  C    0.143211  -0.022360
     5  N   -0.364461   0.001665
     6  C    0.066873   0.000395
     7  C    0.232297   0.000729
     8  O   -0.307041  -0.000423
     9  H    0.039313   0.002308
    10  H    0.049372   0.019673
    11  H    0.050067   0.005202
    12  H   -0.027489  -0.095662
    13  H    0.046357   0.002972
    14  H    0.057759   0.003497
    15  H    0.045434   0.020649
    16  H    0.037764   0.024724
    17  H    0.045814   0.004668
    18  H    0.080176  -0.000125
    19  H    0.046524  -0.000204
    20  H    0.047671   0.000368
    21  H    0.011947  -0.000701
    22  C   -0.050633   0.621281
    23  C   -0.177700  -0.031454
    24  C    0.002285   0.003696
    25  N    0.030232   0.034046
    26  O   -0.340571   0.001792
    27  C    0.192005   0.009604
    28  N   -0.197420  -0.000348
    29  H    0.064146  -0.023351
    30  H    0.062996  -0.024714
    31  H    0.063143   0.003362
    32  H    0.059240   0.000086
    33  H    0.046996  -0.000977
    34  H    0.136613  -0.000091
    35  H    0.123727  -0.000106
 Sum of Mulliken charges =  -0.00000   1.00000

 Dipole moment (field-independent basis, Debye):
    X=             -2.2845    Y=              0.4225    Z=              1.6277  Tot=              2.8367
 Quadrupole moment (field-independent basis, Debye-Ang):
   XX=           -134.3895   YY=           -120.8427   ZZ=            -88.2381
   XY=             -9.4343   XZ=             18.2119   YZ=              5.4302

  Exact polarizability:     122.478      11.061     170.455      -4.802       7.670     127.415
 Approx polarizability:     145.279      11.090     184.082      -6.937       1.916     165.607

 ******    1 imaginary frequencies (negative Signs) ******

                      1                      2                      3
                      A                      A                      A
 Frequencies --  -1629.8802                34.7784                44.5341
 Red. masses --      1.1179                 4.5110                 4.0556
 Frc consts  --      1.7497                 0.0032                 0.0047
 IR Inten    --    237.3725                 2.7595                 0.6613

                      4                      5                      6
                      A                      A                      A
 Frequencies --     50.4353                67.8680                90.6312
 Red. masses --      5.6823                 4.1368                 4.3254
 Frc consts  --      0.0085                 0.0112                 0.0209
 IR Inten    --      1.8084                 1.1187                 1.5712

                      7                      8                      9
                      A                      A                      A
 Frequencies --    102.1416               122.0796               141.5309
 Red. masses --      3.6319                 3.4273                 2.4504
 Frc consts  --      0.0223                 0.0301                 0.0289
 IR Inten    --      0.5068                 0.4037                 0.6164

                     10                     11                     12
                      A                      A                      A
 Frequencies --    167.7579               191.0980               208.4680
 Red. masses --      2.7015                 3.8779                 1.0918
 Frc consts  --      0.0448                 0.0834                 0.0280
 IR Inten    --      0.4170                 1.2642                 0.6849

                     13                     14                     15
                      A                      A                      A
 Frequencies --    212.5624               232.6135               265.9726
 Red. masses --      1.1179                 1.1541                 2.5731
 Frc consts  --      0.0298                 0.0368                 0.1072
 IR Inten    --      0.3455                 0.1700                 0.5542

                     16                     17                     18
                      A                      A                      A
 Frequencies --    283.2566               306.7489               338.6374
 Red. masses --      2.6100                 2.5544                 2.4212
 Frc consts  --      0.1234                 0.1416                 0.1636
 IR Inten    --      1.5842                 7.0718                 3.3419

                     19                     20                     21
                      A                      A                      A
 Frequencies --    353.6789               359.5626               371.3238
 Red. masses --      1.3481                 2.7576                 2.3570
 Frc consts  --      0.0994                 0.2101                 0.1915
 IR Inten    --     46.7635                 7.4005                16.2861

                     22                     23                     24
                      A                      A                      A
 Frequencies --    412.2308               420.8566               453.4901
 Red. masses --      2.2943                 1.9149                 2.8506
 Frc consts  --      0.2297                 0.1998                 0.3454
 IR Inten    --     23.1983                 7.5877                 0.7953

                     25                     26                     27
                      A                      A                      A
 Frequencies --    516.1803               542.6934               595.4491
 Red. masses --      3.3480                 1.8176                 3.4566
 Frc consts  --      0.5256                 0.3154                 0.7221
 IR Inten    --      5.5652                 3.1889                 7.3581

                     28                     29                     30
                      A                      A                      A
 Frequencies --    600.6139               731.8755               742.9975
 Red. masses --      2.2172                 3.9268                 2.6417
 Frc consts  --      0.4712                 1.2393                 0.8592
 IR Inten    --      3.7466                19.3115                11.4753

                     31                     32                     33
                      A                      A                      A
 Frequencies --    821.9625               832.2339               835.4866
 Red. masses --      2.6791                 2.1741                 2.5896
 Frc consts  --      1.0665                 0.8872                 1.0650
 IR Inten    --      3.6801                32.3744                 3.1911

                     34                     35                     36
                      A                      A                      A
 Frequencies --    868.1290               879.6833               905.2019
 Red. masses --      1.2830                 3.2772                 2.2244
 Frc consts  --      0.5697                 1.4942                 1.0739
 IR Inten    --     30.3092                91.4827                 5.4663

                     37                     38                     39
                      A                      A                      A
 Frequencies --    924.3076               939.9566               975.2235
 Red. masses --      1.8809                 1.2902                 2.1377
 Frc consts  --      0.9468                 0.6716                 1.1978
 IR Inten    --      3.2160                 0.8453                28.7024

                     40                     41                     42
                      A                      A                      A
 Frequencies --    976.6631               984.0974               994.1258
 Red. masses --      2.1420                 1.7962                 1.6737
 Frc consts  --      1.2038                 1.0249                 0.9746
 IR Inten    --     28.8288                29.1568                26.4992

                     43                     44                     45
                      A                      A                      A
 Frequencies --   1039.6976              1041.9704              1071.9807
 Red. masses --      3.5676                 1.6391                 1.4757
 Frc consts  --      2.2722                 1.0485                 0.9991
 IR Inten    --     60.5811                 0.8912                 3.6547

                     46                     47                     48
                      A                      A                      A
 Frequencies --   1085.4347              1099.1564              1104.7808
 Red. masses --      1.4344                 2.2903                 1.5559
 Frc consts  --      0.9957                 1.6303                 1.1189
 IR Inten    --      4.9813                15.6955                85.2666

                     49                     50                     51
                      A                      A                      A
 Frequencies --   1138.1156              1153.3724              1195.5027
 Red. masses --      1.7505                 1.3898                 1.6059
 Frc consts  --      1.3359                 1.0893                 1.3523
 IR Inten    --     66.1469                 3.0284                 3.6057

                     52                     53                     54
                      A                      A                      A
 Frequencies --   1212.9133              1248.7418              1258.2324
 Red. masses --      2.2717                 1.3002                 1.8476
 Frc consts  --      1.9691                 1.1946                 1.7234
 IR Inten    --      3.1202                14.7648                 0.1745

                     55                     56                     57
                      A                      A                      A
 Frequencies --   1263.0241              1271.2183              1282.2743
 Red. masses --      1.4531                 1.8035                 2.2632
 Frc consts  --      1.3657                 1.7171                 2.1925
 IR Inten    --      7.7645                 3.2274                29.2080

                     58                     59                     60
                      A                      A                      A
 Frequencies --   1327.6000              1344.5262              1360.8677
 Red. masses --      2.5486                 1.4079                 1.4038
 Frc consts  --      2.6465                 1.4996                 1.5317
 IR Inten    --     19.4643                 3.5410                 4.1361

                     61                     62                     63
                      A                      A                      A
 Frequencies --   1368.7891              1374.4721              1394.8870
 Red. masses --      1.2539                 1.2888                 1.2608
 Frc consts  --      1.3842                 1.4345                 1.4454
 IR Inten    --     12.4707                 0.7844                 9.4171

                     64                     65                     66
                      A                      A                      A
 Frequencies --   1413.3093              1417.8943              1428.8224
 Red. masses --      1.2644                 1.2104                 1.1045
 Frc consts  --      1.4880                 1.4337                 1.3286
 IR Inten    --      4.8571                18.8657                10.9317

                     67                     68                     69
                      A                      A                      A
 Frequencies --   1432.0761              1436.2606              1450.1095
 Red. masses --      1.2765                 1.3491                 1.1764
 Frc consts  --      1.5425                 1.6397                 1.4575
 IR Inten    --      9.6427                 7.5453                37.3236

                     70                     71                     72
                      A                      A                      A
 Frequencies --   1453.4911              1455.5323              1457.4210
 Red. masses --      1.2385                 1.1589                 1.3940
 Frc consts  --      1.5416                 1.4466                 1.7446
 IR Inten    --     39.9111                15.9497                19.1771

                     73                     74                     75
                      A                      A                      A
 Frequencies --   1459.8411              1470.2042              1472.5202
 Red. masses --      1.2206                 1.0807                 1.1184
 Frc consts  --      1.5326                 1.3763                 1.4288
 IR Inten    --     10.2457                14.2418                 1.2101

                     76                     77                     78
                      A                      A                      A
 Frequencies --   1479.4076              1524.8475              1634.7059
 Red. masses --      1.1286                 1.7250                 1.1195
 Frc consts  --      1.4553                 2.3632                 1.7626
 IR Inten    --     15.3198                94.0277                34.8445

                     79                     80                     81
                      A                      A                      A
 Frequencies --   1732.7265              1868.9310              2984.3724
 Red. masses --      9.3187                 9.4277                 1.0861
 Frc consts  --     16.4842                19.4019                 5.6995
 IR Inten    --     12.3877               554.0743                57.0226

                     82                     83                     84
                      A                      A                      A
 Frequencies --   3028.2913              3032.3300              3033.6855
 Red. masses --      1.0612                 1.0445                 1.0440
 Frc consts  --      5.7340                 5.6587                 5.6610
 IR Inten    --     44.6903                10.0413                26.1715

                     85                     86                     87
                      A                      A                      A
 Frequencies --   3036.3717              3068.7805              3097.9060
 Red. masses --      1.0407                 1.0882                 1.0568
 Frc consts  --      5.6531                 6.0380                 5.9757
 IR Inten    --     42.8662                34.5260                 5.6848

                     88                     89                     90
                      A                      A                      A
 Frequencies --   3102.8121              3113.5581              3116.7253
 Red. masses --      1.1000                 1.0983                 1.0956
 Frc consts  --      6.2395                 6.2731                 6.2705
 IR Inten    --      6.4647                18.1077                13.8040

                     91                     92                     93
                      A                      A                      A
 Frequencies --   3124.1179              3137.6147              3143.4179
 Red. masses --      1.0957                 1.0871                 1.1042
 Frc consts  --      6.3006                 6.3056                 6.4282
 IR Inten    --     11.1693                 6.3960                16.1821

                     94                     95                     96
                      A                      A                      A
 Frequencies --   3149.8412              3188.9258              3189.8938
 Red. masses --      1.1042                 1.1108                 1.1042
 Frc consts  --      6.4546                 6.6553                 6.6200
 IR Inten    --     14.5218                 7.2144                 0.1888

                     97                     98                     99
                      A                      A                      A
 Frequencies --   3249.0636              3539.7597              3624.3396
 Red. masses --      1.0969                 1.0509                 1.0934
 Frc consts  --      6.8225                 7.7585                 8.4619
 IR Inten    --      1.9323                 9.6612                19.3449

 - Thermochemistry -
 -------------------
 Temperature   298.150 Kelvin.  Pressure   1.00000 Atm.
 Atom     1 has atomic number  6 and mass  12.00000

 Molecular mass:   214.15555 amu.
 Principal axes and moments of inertia in atomic units:
                           1         2         3
     Eigenvalues --  1897.288155874.019676465.34466
           X            0.32356   0.85793   0.39908
           Y            0.94588  -0.30442  -0.11246
           Z           -0.02500  -0.41387   0.90999
 This molecule is an asymmetric top.
 Rotational symmetry number  1.
 Warning -- assumption of classical behavior for rotation
           may cause significant error
 Rotational temperatures (Kelvin)      0.04565     0.01475     0.01340
 Rotational constants (GHZ):           0.95122     0.30724     0.27914
    1 imaginary frequencies ignored.
 Zero-point vibrational energy     784072.0 (Joules/Mol)
                                  187.39771 (Kcal/Mol)
 Warning -- explicit consideration of  27 degrees of freedom as
           vibrations may cause significant error
 Vibrational temperatures:     50.04    64.07    72.57    97.65   130.40
          (Kelvin)            146.96   175.65   203.63   241.37   274.95
                              299.94   305.83   334.68   382.68   407.54
                              441.34   487.22   508.87   517.33   534.25
                              593.11   605.52   652.47   742.67   780.81
                              856.72   864.15  1053.01  1069.01  1182.62
                             1197.40  1202.08  1249.04  1265.67  1302.38
                             1329.87  1352.39  1403.13  1405.20  1415.90
                             1430.33  1495.89  1499.16  1542.34  1561.70
                             1581.44  1589.53  1637.49  1659.45  1720.06
                             1745.11  1796.66  1810.32  1817.21  1829.00
                             1844.91  1910.12  1934.47  1957.99  1969.38
                             1977.56  2006.93  2033.44  2040.03  2055.76
                             2060.44  2066.46  2086.38  2091.25  2094.19
                             2096.90  2100.39  2115.30  2118.63  2128.54
                             2193.92  2351.98  2493.01  2688.97  4293.85
                             4357.04  4362.85  4364.80  4368.66  4415.29
                             4457.20  4464.25  4479.72  4484.27  4494.91
                             4514.33  4522.68  4531.92  4588.15  4589.55
                             4674.68  5092.92  5214.62

 Zero-point correction=                           0.298637 (Hartree/Particle)
 Thermal correction to Energy=                    0.316034
 Thermal correction to Enthalpy=                  0.316978
 Thermal correction to Gibbs Free Energy=         0.252279
 Sum of electronic and zero-point Energies=           -706.516508
 Sum of electronic and thermal Energies=              -706.499111
 Sum of electronic and thermal Enthalpies=            -706.498167
 Sum of electronic and thermal Free Energies=         -706.562866

                     E (Thermal)             CV                S
                      KCal/Mol        Cal/Mol-Kelvin    Cal/Mol-Kelvin
 Total                  198.314             63.813            136.172
 Electronic               0.000              0.000              1.377
 Translational            0.889              2.981             41.988
 Rotational               0.889              2.981             32.644
 Vibrational            196.537             57.851             60.163
 Vibration     1          0.594              1.983              5.536
 Vibration     2          0.595              1.980              5.046
 Vibration     3          0.595              1.977              4.800
 Vibration     4          0.598              1.970              4.214
 Vibration     5          0.602              1.956              3.646
 Vibration     6          0.604              1.947              3.413
 Vibration     7          0.610              1.931              3.067
 Vibration     8          0.615              1.912              2.783
 Vibration     9          0.624              1.882              2.460
 Vibration    10          0.634              1.852              2.217
 Vibration    11          0.642              1.828              2.057
 Vibration    12          0.644              1.822              2.022
 Vibration    13          0.653              1.791              1.859
 Vibration    14          0.672              1.735              1.622
 Vibration    15          0.682              1.705              1.514
 Vibration    16          0.697              1.661              1.380
 Vibration    17          0.719              1.598              1.219
 Vibration    18          0.730              1.568              1.150
 Vibration    19          0.734              1.556              1.124
 Vibration    20          0.743              1.531              1.074
 Vibration    21          0.776              1.444              0.919
 Vibration    22          0.783              1.425              0.889
 Vibration    23          0.812              1.353              0.785
 Vibration    24          0.871              1.214              0.619
 Vibration    25          0.898              1.156              0.560
 Vibration    26          0.953              1.041              0.458
 Vibration    27          0.959              1.030              0.449

 Optimization completed.
    -- Stationary point found.
 Normal termination of Gaussian 16 at Mon Sep 11 11:44:15 2023.
