   * xtb version 6.4.1 (afa7bdf) compiled by 'ehlert@majestix' on 2021-06-10
          program call               : xtb molecule_209529.xyz --ohess --cycles 1000 --chrg 0 -P 16 --uhf 0
          number of atoms            :                    20
          number of electrons        :                    58
          charge                     :                     0
          spin                       :                   0.0

   ID    Z sym.   atoms
    1    6 C      1, 3, 5-7, 9
    2    8 O      2, 4, 8, 10
    3    1 H      11-20

          :  Hamiltonian                  GFN2-xTB          :
 * total energy  :   -34.2192431 Eh     change       -0.1615561E-09 Eh
 * total energy  :   -34.2197293 Eh     change       -0.4862219E-03 Eh
 * total energy  :   -34.2198478 Eh     change       -0.1184835E-03 Eh
 * total energy  :   -34.2198839 Eh     change       -0.3608637E-04 Eh
 * total energy  :   -34.2199165 Eh     change       -0.3260145E-04 Eh
 * total energy  :   -34.2199382 Eh     change       -0.2173566E-04 Eh
 * total energy  :   -34.2199502 Eh     change       -0.1198719E-04 Eh
 * total energy  :   -34.2199551 Eh     change       -0.4913698E-05 Eh
   *** GEOMETRY OPTIMIZATION CONVERGED AFTER 8 ITERATIONS ***

 final structure:
================
20
 xtb: 6.4.1 (afa7bdf)
C         2.41440794528207   -0.94945874282767   -1.60677469366711
O         1.54787440811952   -0.72605908296506   -0.49875358829226
C         0.26067537711179   -0.51876612132425   -0.79733424864570
O        -0.17981662056942   -0.51457832435989   -1.91170570402638
C        -0.55915887361709   -0.27662701805116    0.47860846158835
C        -0.43052330651123   -1.45674239474223    1.43082362682512
C        -0.16933064367339    1.08620527661864    1.08519860232491
O        -0.96727031079730    2.00203849175774    0.37281897011811
C        -2.06310663499503    1.29140484162979   -0.16584843888194
O        -1.91841607447866   -0.06288446334871    0.15139117339890
H         3.40065221093612   -1.12803393449705   -1.18690933989240
H         2.42608120180020   -0.07481255664025   -2.25949057907610
H         2.07688760972502   -1.81376506011614   -2.18130645073655
H        -1.03366288482799   -1.27623226587791    2.31680427229746
H         0.60993421787366   -1.58828145776413    1.71286705894552
H        -0.79288752010867   -2.35734349843255    0.94225167119880
H        -0.41934312209152    1.10503400581613    2.15521763619191
H         0.88052484090717    1.34517072031161    0.94595757427000
H        -2.07491584507115    1.45044149426171   -1.25497410859932
H        -3.00860597501409    1.64379009055138    0.27095810465869

          :  Hamiltonian                  GFN2-xTB          :
         :: gradient norm              0.000760967629 Eh/a0 ::
         :: HOMO-LUMO gap              4.278791848807 eV    ::
         :: SCC energy               -34.514775197903 Eh    ::
         :: -> dispersion             -0.014551751840 Eh    ::
         :: repulsion energy           0.294738353411 Eh    ::

    * Orbital Energies and Occupations

         #    Occupation            Energy/Eh            Energy/eV
      -------------------------------------------------------------
         1        2.0000           -0.7593753             -20.6637
       ...           ...                  ...                  ...
        17        2.0000           -0.5368444             -14.6083
        18        2.0000           -0.5255244             -14.3002
        19        2.0000           -0.5211679             -14.1817
        20        2.0000           -0.5150401             -14.0150
        21        2.0000           -0.5008271             -13.6282
        22        2.0000           -0.4959539             -13.4956
        23        2.0000           -0.4898744             -13.3302
        24        2.0000           -0.4868798             -13.2487
        25        2.0000           -0.4681071             -12.7378
        26        2.0000           -0.4619186             -12.5694
        27        2.0000           -0.4551066             -12.3841
        28        2.0000           -0.4150058             -11.2929
        29        2.0000           -0.4018615             -10.9352 (HOMO)
        30                         -0.2446190              -6.6564 (LUMO)
        31                         -0.0204084              -0.5553
        32                         -0.0046361              -0.1262
        33                          0.0222819               0.6063
        34                          0.0620299               1.6879
        35                          0.0879089               2.3921
        36                          0.0910396               2.4773
        37                          0.1213359               3.3017
        38                          0.1225690               3.3353
        39                          0.1437613               3.9119
        40                          0.1588575               4.3227
       ...                                ...                  ...
        50                          0.6520757              17.7439
      -------------------------------------------------------------
                  HL-Gap            0.1572425 Eh            4.2788 eV

     #   Z          covCN         q      C6AA      α(0)
     1   6 C        3.657     0.030    20.350     6.475
     2   8 O        1.704    -0.266    18.404     5.792
     3   6 C        2.725     0.344    21.152     7.529
     4   8 O        0.856    -0.377    21.236     6.178
     5   6 C        3.854     0.121    18.572     6.129
     6   6 C        3.755    -0.121    22.874     6.820
     7   6 C        3.748     0.079    19.325     6.270
     8   8 O        1.702    -0.324    19.423     5.950
     9   6 C        3.693     0.219    17.336     5.957
    10   8 O        1.705    -0.311    19.180     5.913
    11   1 H        0.925     0.074     2.042     2.235
    12   1 H        0.924     0.068     2.105     2.269
    13   1 H        0.924     0.069     2.095     2.264
    14   1 H        0.925     0.068     2.105     2.269
    15   1 H        0.925     0.063     2.164     2.301
    16   1 H        0.925     0.069     2.101     2.267
    17   1 H        0.923     0.044     2.391     2.418
    18   1 H        0.924     0.055     2.260     2.351
    19   1 H        0.923     0.047     2.355     2.400
    20   1 H        0.923     0.047     2.352     2.399

Wiberg/Mayer (AO) data.
largest (>0.10) Wiberg bond orders for each atom

     #   Z sym  total        # sym  WBO       # sym  WBO       # sym  WBO
 ---------------------------------------------------------------------------
     1   6 C    3.919 --    11 H    0.981    13 H    0.977    12 H    0.977
                             2 O    0.950
     2   8 O    2.302 --     3 C    1.131     1 C    0.950     4 O    0.177
     3   6 C    3.920 --     4 O    1.784     2 O    1.131     5 C    0.919
     4   8 O    2.070 --     3 C    1.784     2 O    0.177
     5   6 C    3.949 --     6 C    0.986    10 O    0.967     7 C    0.953
                             3 C    0.919
     6   6 C    3.987 --     5 C    0.986    15 H    0.982    16 H    0.982
                            14 H    0.980
     7   6 C    3.952 --     8 O    0.986    18 H    0.970    17 H    0.965
                             5 C    0.953
     8   8 O    2.063 --     7 C    0.986     9 C    0.972
     9   6 C    3.922 --    10 O    0.989     8 O    0.972    20 H    0.962
                            19 H    0.961
    10   8 O    2.089 --     9 C    0.989     5 C    0.967
    11   1 H    0.994 --     1 C    0.981
    12   1 H    0.995 --     1 C    0.977
    13   1 H    0.995 --     1 C    0.977
    14   1 H    0.995 --     6 C    0.980
    15   1 H    0.996 --     6 C    0.982
    16   1 H    0.995 --     6 C    0.982
    17   1 H    0.998 --     7 C    0.965
    18   1 H    0.997 --     7 C    0.970
    19   1 H    0.998 --     9 C    0.961
    20   1 H    0.998 --     9 C    0.962
 ---------------------------------------------------------------------------

molecular dipole:
                 x           y           z       tot (Debye)
 q only:        0.968      -0.439       0.636
   full:        1.045      -0.429       0.689       3.362

 projected vibrational frequencies (cm⁻¹)
eigval :       -0.00    -0.00    -0.00    -0.00     0.00     0.00
eigval :        7.45    41.71    55.96    94.96   144.29   177.84
eigval :      182.61   255.20   278.79   305.63   340.26   442.66
eigval :      572.16   637.98   719.53   736.83   821.42   915.33
eigval :      932.03   972.32   984.75  1004.48  1056.85  1081.24
eigval :     1099.15  1119.42  1125.60  1139.21  1150.28  1165.06
eigval :     1172.81  1198.39  1218.78  1283.83  1308.51  1383.20
eigval :     1388.34  1438.88  1459.65  1461.03  1471.81  1482.69
eigval :     1490.84  1791.74  2857.82  2881.58  2898.99  2983.46
eigval :     2993.80  2994.48  3043.08  3047.12  3051.08  3057.10

   temp. (K)  partition function   enthalpy   heat capacity  entropy
                                   cal/mol     cal/K/mol   cal/K/mol   J/K/mol
 298.15  VIB  0.496E+05             5200.310     31.777     34.280
         ROT  0.577E+06              888.752      2.981     29.343
         INT  0.286E+11             6089.063     34.758     63.623
         TR   0.171E+28             1481.254      4.968     40.830
         TOT                        7570.3166    39.7264   104.4531   437.0317

       T/K    H(0)-H(T)+PV         H(T)/Eh          T*S/Eh         G(T)/Eh
   ------------------------------------------------------------------------
    298.15    0.120641E-01    0.169075E+00    0.496290E-01    0.119446E+00
   ------------------------------------------------------------------------

         :::::::::::::::::::::::::::::::::::::::::::::::::::::
         ::                  THERMODYNAMIC                  ::
         :::::::::::::::::::::::::::::::::::::::::::::::::::::
         :: total free energy         -34.100508687707 Eh   ::
         ::.................................................::
         :: total energy              -34.219955122848 Eh   ::
         :: zero point energy           0.157011401269 Eh   ::
         :: G(RRHO) w/o ZPVE           -0.037564966129 Eh   ::
         :: G(RRHO) contrib.            0.119446435141 Eh   ::
         :::::::::::::::::::::::::::::::::::::::::::::::::::::

           -------------------------------------------------
          | TOTAL ENERGY              -34.219955122848 Eh   |
          | TOTAL ENTHALPY            -34.050879654158 Eh   |
          | TOTAL FREE ENERGY         -34.100508687707 Eh   |
          | GRADIENT NORM               0.000760810982 Eh/α |
          | HOMO-LUMO GAP               4.278787396280 eV   |
           -------------------------------------------------

 * finished run on 2023/09/13 at 16:13:02.542
