 Gaussian 16, Revision C.01,
 Gaussian 16:  ES64L-G16RevC.01  3-Jul-2019

 -----------------------------------
 # um062x Def2TZVP stable=opt NoSymm
 -----------------------------------

 -----------------
 p0_C6H12NO_sp_g16
 -----------------
 Symbolic Z-matrix:
 Charge =  0 Multiplicity = 2

                          Input orientation:
 ---------------------------------------------------------------------
 Center     Atomic      Atomic             Coordinates (Angstroms)
 Number     Number       Type             X           Y           Z
 ---------------------------------------------------------------------
      1          6           0       -1.859458   -0.719041   -0.780538
      2          6           0       -1.482248    0.634204   -0.277760
      3          6           0       -2.508198    1.716709   -0.261745
      4          6           0       -0.312719    0.747294    0.658044
      5          7           0        0.859608    0.023329    0.214211
      6          6           0        1.486553    0.442869   -1.019224
      7          6           0        1.356752   -1.038271    0.907966
      8          8           0        2.319168   -1.695394    0.594514
      9          1           0       -2.468283   -0.651192   -1.694326
     10          1           0       -0.973928   -1.335279   -0.995749
     11          1           0       -2.464526   -1.273578   -0.035146
     12          1           0       -3.078357    1.740834   -1.202789
     13          1           0       -2.054145    2.706791   -0.106482
     14          1           0       -3.248576    1.570109    0.550112
     15          1           0       -0.577322    0.357449    1.662295
     16          1           0       -0.057278    1.813172    0.800915
     17          1           0        2.358632   -0.197238   -1.192706
     18          1           0        0.786428    0.351371   -1.865081
     19          1           0        1.809513    1.493870   -0.949761
     20          1           0        0.762742   -1.244328    1.829270
 ---------------------------------------------------------------------

 SCF Done:  E(UM062X) =  -365.760805295     A.U. after   17 cycles

 Alpha  occ. eigenvalues --  -19.59179 -14.77991 -10.63505 -10.58799 -10.56753
 Alpha  occ. eigenvalues --  -10.55971 -10.54284 -10.53907  -1.16235  -1.05642
 Alpha  occ. eigenvalues --   -0.91519  -0.82210  -0.79697  -0.79094  -0.65858
 Alpha  occ. eigenvalues --   -0.63707  -0.59572  -0.56141  -0.54915  -0.52197
 Alpha  occ. eigenvalues --   -0.50534  -0.49518  -0.47845  -0.46488  -0.45544
 Alpha  occ. eigenvalues --   -0.45357  -0.45021  -0.42724  -0.42385  -0.33581
 Alpha  occ. eigenvalues --   -0.30847  -0.24681
 Alpha virt. eigenvalues --    0.05352   0.05753   0.09080   0.09764   0.10455
 Alpha virt. eigenvalues --    0.11623   0.12421   0.13594   0.14445   0.15013
 Alpha virt. eigenvalues --    0.15585   0.15828   0.17078   0.17198   0.17728

  Beta  occ. eigenvalues --  -19.59175 -14.77965 -10.63504 -10.58864 -10.56747
  Beta  occ. eigenvalues --  -10.55259 -10.54347 -10.53965  -1.16220  -1.05500
  Beta  occ. eigenvalues --   -0.89634  -0.82045  -0.79364  -0.78909  -0.65386
  Beta  occ. eigenvalues --   -0.62363  -0.58907  -0.55685  -0.54389  -0.50311
  Beta  occ. eigenvalues --   -0.50173  -0.49042  -0.47462  -0.45790  -0.45406
  Beta  occ. eigenvalues --   -0.45036  -0.44804  -0.42307  -0.41903  -0.33479
  Beta  occ. eigenvalues --   -0.30675
  Beta virt. eigenvalues --   -0.01388   0.04942   0.05735   0.08795   0.09241
  Beta virt. eigenvalues --    0.10113   0.11419   0.11981   0.13470   0.14160
  Beta virt. eigenvalues --    0.14877   0.15627   0.15929   0.16888   0.17549

 Mulliken charges and spin densities:
               1          2
     1  C   -0.438789  -0.088389
     2  C    0.004167   0.969666
     3  C   -0.437632  -0.060976
     4  C   -0.266555  -0.068771
     5  N   -0.117717   0.012657
     6  C   -0.354144   0.004618
     7  C    0.171810   0.000004
     8  O   -0.370918   0.001518
     9  H    0.150996   0.013142
    10  H    0.164647   0.010609
    11  H    0.151067   0.061516
    12  H    0.149055   0.017019
    13  H    0.141614   0.010451
    14  H    0.150754   0.062170
    15  H    0.161414   0.055345
    16  H    0.162677   0.005328
    17  H    0.185618   0.000862
    18  H    0.159785  -0.004824
    19  H    0.146903  -0.000454
    20  H    0.085247  -0.001489
 Sum of Mulliken charges =  -0.00000   1.00000

 Dipole moment (field-independent basis, Debye):
    X=             -3.2557    Y=              2.7084    Z=             -0.1577  Tot=              4.2379
 Quadrupole moment (field-independent basis, Debye-Ang):
   XX=            -57.3160   YY=            -54.7903   ZZ=            -48.6136
   XY=              6.9350   XZ=             -2.5070   YZ=              0.8893

 Normal termination of Gaussian 16 at Mon Sep 11 12:34:23 2023.
