 Gaussian 16, Revision C.01,
 Gaussian 16:  ES64L-G16RevC.01  3-Jul-2019

 -----------------------------------
 # um062x Def2TZVP stable=opt NoSymm
 -----------------------------------

 -----------------
 p1_C4H8N2O_sp_g16
 -----------------
 Symbolic Z-matrix:
 Charge =  0 Multiplicity = 1

                          Input orientation:
 ---------------------------------------------------------------------
 Center     Atomic      Atomic             Coordinates (Angstroms)
 Number     Number       Type             X           Y           Z
 ---------------------------------------------------------------------
      1          6           0       -1.153520    1.165600    1.426799
      2          6           0       -0.830539    0.567227    0.064571
      3          6           0       -1.085850   -0.910712   -0.084296
      4          7           0       -0.195309   -1.521011   -0.756518
      5          8           0        0.780531   -0.627539   -1.134331
      6          6           0        0.648753    0.587963   -0.359615
      7          7           0        1.544721    0.637615    0.748230
      8          1           0       -2.232187    1.098196    1.626017
      9          1           0       -0.622340    0.643803    2.233336
     10          1           0       -0.859321    2.222426    1.465742
     11          1           0       -1.425361    1.083554   -0.708567
     12          1           0       -1.950386   -1.461614    0.289953
     13          1           0        0.884068    1.408896   -1.048406
     14          1           0        1.406658   -0.166964    1.359195
     15          1           0        2.507982    0.606214    0.421958
 ---------------------------------------------------------------------

 SCF Done:  E(UM062X) =  -341.892725248     A.U. after   13 cycles

 Alpha  occ. eigenvalues --  -19.66149 -14.80348 -14.74320 -10.62489 -10.57551
 Alpha  occ. eigenvalues --  -10.56489 -10.54286  -1.23125  -1.01668  -0.96140
 Alpha  occ. eigenvalues --   -0.88809  -0.78559  -0.68687  -0.67362  -0.61635
 Alpha  occ. eigenvalues --   -0.58305  -0.54765  -0.52640  -0.49367  -0.47889
 Alpha  occ. eigenvalues --   -0.47034  -0.43990  -0.42571  -0.40682  -0.37863
 Alpha  occ. eigenvalues --   -0.33385  -0.31343
 Alpha virt. eigenvalues --    0.02777   0.06252   0.08025   0.09176   0.10930
 Alpha virt. eigenvalues --    0.11712   0.12980   0.14652   0.16166   0.16801
 Alpha virt. eigenvalues --    0.18263   0.20041   0.20855   0.22121   0.23549

  Beta  occ. eigenvalues --  -19.66149 -14.80348 -14.74320 -10.62489 -10.57551
  Beta  occ. eigenvalues --  -10.56489 -10.54286  -1.23125  -1.01668  -0.96140
  Beta  occ. eigenvalues --   -0.88809  -0.78559  -0.68687  -0.67362  -0.61635
  Beta  occ. eigenvalues --   -0.58305  -0.54765  -0.52640  -0.49367  -0.47889
  Beta  occ. eigenvalues --   -0.47034  -0.43990  -0.42571  -0.40682  -0.37863
  Beta  occ. eigenvalues --   -0.33385  -0.31343
  Beta virt. eigenvalues --    0.02777   0.06252   0.08025   0.09176   0.10930
  Beta virt. eigenvalues --    0.11712   0.12980   0.14652   0.16166   0.16801
  Beta virt. eigenvalues --    0.18263   0.20041   0.20855   0.22121   0.23549

 Mulliken charges and spin densities:
               1          2
     1  C   -0.385855   0.000000
     2  C   -0.172845   0.000000
     3  C   -0.127709   0.000000
     4  N   -0.024049   0.000000
     5  O   -0.204944   0.000000
     6  C    0.097424   0.000000
     7  N   -0.535802   0.000000
     8  H    0.147710   0.000000
     9  H    0.127604   0.000000
    10  H    0.159104   0.000000
    11  H    0.147781   0.000000
    12  H    0.155465   0.000000
    13  H    0.133949   0.000000
    14  H    0.242724   0.000000
    15  H    0.239444   0.000000
 Sum of Mulliken charges =  -0.00000   0.00000

 Dipole moment (field-independent basis, Debye):
    X=             -0.9928    Y=              1.8199    Z=              1.5427  Tot=              2.5841
 Quadrupole moment (field-independent basis, Debye-Ang):
   XX=            -37.2630   YY=            -46.7242   ZZ=            -44.8091
   XY=              0.5504   XZ=              0.1100   YZ=             -5.6319

 Normal termination of Gaussian 16 at Mon Sep 11 12:36:19 2023.
