 Gaussian 16, Revision C.01,
 Gaussian 16:  ES64L-G16RevC.01  3-Jul-2019

 -----------------------------------
 # um062x Def2TZVP stable=opt NoSymm
 -----------------------------------

 -----------------
 r0_C6H13NO_sp_g16
 -----------------
 Symbolic Z-matrix:
 Charge =  0 Multiplicity = 1

                          Input orientation:
 ---------------------------------------------------------------------
 Center     Atomic      Atomic             Coordinates (Angstroms)
 Number     Number       Type             X           Y           Z
 ---------------------------------------------------------------------
      1          6           0       -2.460222   -0.874651    1.540639
      2          6           0       -1.409641   -0.766484    0.438551
      3          6           0       -1.933373    0.009105   -0.765842
      4          6           0       -0.140860   -0.115344    1.002835
      5          7           0        0.919394    0.055110    0.035799
      6          6           0        1.529918   -1.123281   -0.537823
      7          6           0        1.306902    1.288868   -0.393615
      8          8           0        2.151409    1.507581   -1.227716
      9          1           0       -2.079458   -1.433896    2.408071
     10          1           0       -2.759905    0.126683    1.889038
     11          1           0       -3.362617   -1.386248    1.177772
     12          1           0       -1.150821   -1.788995    0.112274
     13          1           0       -2.846801   -0.453378   -1.166203
     14          1           0       -1.190122    0.051508   -1.575094
     15          1           0       -2.178666    1.045151   -0.479606
     16          1           0       -0.398175    0.880394    1.401026
     17          1           0        0.232156   -0.714940    1.852688
     18          1           0        2.422037   -0.810215   -1.091780
     19          1           0        1.814831   -1.827341    0.259008
     20          1           0        0.847093   -1.639243   -1.232930
     21          1           0        0.750699    2.103035    0.127070
 ---------------------------------------------------------------------

 SCF Done:  E(UM062X) =  -366.422286382     A.U. after   14 cycles

 Alpha  occ. eigenvalues --  -19.59156 -14.77931 -10.63443 -10.58333 -10.56997
 Alpha  occ. eigenvalues --  -10.55299 -10.53804 -10.53390  -1.16209  -1.05550
 Alpha  occ. eigenvalues --   -0.91490  -0.82014  -0.78854  -0.78367  -0.66507
 Alpha  occ. eigenvalues --   -0.64931  -0.59955  -0.56420  -0.54361  -0.53409
 Alpha  occ. eigenvalues --   -0.50003  -0.48982  -0.47414  -0.46157  -0.45515
 Alpha  occ. eigenvalues --   -0.45257  -0.44753  -0.41455  -0.40681  -0.39804
 Alpha  occ. eigenvalues --   -0.33456  -0.30477
 Alpha virt. eigenvalues --    0.05104   0.05749   0.07739   0.08980   0.10337
 Alpha virt. eigenvalues --    0.10902   0.12006   0.12977   0.13960   0.14334
 Alpha virt. eigenvalues --    0.14760   0.15638   0.17378   0.17455   0.18011

  Beta  occ. eigenvalues --  -19.59156 -14.77931 -10.63443 -10.58333 -10.56997
  Beta  occ. eigenvalues --  -10.55299 -10.53804 -10.53390  -1.16209  -1.05550
  Beta  occ. eigenvalues --   -0.91490  -0.82014  -0.78854  -0.78367  -0.66507
  Beta  occ. eigenvalues --   -0.64931  -0.59955  -0.56420  -0.54361  -0.53409
  Beta  occ. eigenvalues --   -0.50003  -0.48982  -0.47414  -0.46157  -0.45515
  Beta  occ. eigenvalues --   -0.45257  -0.44753  -0.41455  -0.40681  -0.39804
  Beta  occ. eigenvalues --   -0.33456  -0.30477
  Beta virt. eigenvalues --    0.05104   0.05749   0.07739   0.08980   0.10337
  Beta virt. eigenvalues --    0.10902   0.12006   0.12977   0.13960   0.14334
  Beta virt. eigenvalues --    0.14760   0.15638   0.17378   0.17455   0.18011

 Mulliken charges and spin densities:
               1          2
     1  C   -0.436931   0.000000
     2  C   -0.082117   0.000000
     3  C   -0.448590   0.000000
     4  C   -0.327088   0.000000
     5  N   -0.104398   0.000000
     6  C   -0.360110   0.000000
     7  C    0.170752   0.000000
     8  O   -0.370936   0.000000
     9  H    0.143857   0.000000
    10  H    0.143839   0.000000
    11  H    0.150466   0.000000
    12  H    0.144493   0.000000
    13  H    0.150935   0.000000
    14  H    0.160878   0.000000
    15  H    0.145097   0.000000
    16  H    0.175846   0.000000
    17  H    0.166021   0.000000
    18  H    0.186069   0.000000
    19  H    0.149062   0.000000
    20  H    0.153027   0.000000
    21  H    0.089829   0.000000
 Sum of Mulliken charges =  -0.00000   0.00000

 Dipole moment (field-independent basis, Debye):
    X=             -2.6744    Y=             -2.2266    Z=              2.2732  Tot=              4.1566
 Quadrupole moment (field-independent basis, Debye-Ang):
   XX=            -57.3756   YY=            -52.1508   ZZ=            -53.9330
   XY=             -5.8998   XZ=              4.4244   YZ=              4.2073

 Normal termination of Gaussian 16 at Mon Sep 11 12:27:56 2023.
