 Gaussian 16, Revision C.01,
 Gaussian 16:  ES64L-G16RevC.01  3-Jul-2019

 -----------------------------------
 # um062x Def2TZVP stable=opt NoSymm
 -----------------------------------

 -----------------
 r1_C4H7N2O_sp_g16
 -----------------
 Symbolic Z-matrix:
 Charge =  0 Multiplicity = 2

                          Input orientation:
 ---------------------------------------------------------------------
 Center     Atomic      Atomic             Coordinates (Angstroms)
 Number     Number       Type             X           Y           Z
 ---------------------------------------------------------------------
      1          6           0       -1.401089   -1.658442   -0.053687
      2          6           0       -0.920137   -0.307451    0.341422
      3          6           0       -0.949371    0.751441   -0.744870
      4          7           0        0.059067    1.523667   -0.728875
      5          8           0        0.912369    1.139831    0.279556
      6          6           0        0.565991   -0.191896    0.727721
      7          7           0        1.370006   -1.205218    0.131041
      8          1           0       -0.737381   -2.518491    0.010472
      9          1           0       -2.443262   -1.796851   -0.340410
     10          1           0       -1.535858    0.088011    1.174266
     11          1           0       -1.745953    0.906550   -1.473635
     12          1           0        0.728749   -0.190889    1.812450
     13          1           0        2.352146   -1.050632    0.346501
     14          1           0        1.268567   -1.197767   -0.883756
 ---------------------------------------------------------------------

 SCF Done:  E(UM062X) =  -341.221989820     A.U. after   17 cycles

 Alpha  occ. eigenvalues --  -19.66474 -14.80676 -14.74536 -10.62925 -10.58133
 Alpha  occ. eigenvalues --  -10.57294 -10.56008  -1.23491  -1.01972  -0.96599
 Alpha  occ. eigenvalues --   -0.89257  -0.77967  -0.68722  -0.67712  -0.61847
 Alpha  occ. eigenvalues --   -0.58685  -0.55283  -0.52885  -0.51135  -0.47565
 Alpha  occ. eigenvalues --   -0.47539  -0.44228  -0.41666  -0.38973  -0.34058
 Alpha  occ. eigenvalues --   -0.31750  -0.27555
 Alpha virt. eigenvalues --    0.02993   0.06640   0.08480   0.09735   0.11564
 Alpha virt. eigenvalues --    0.11628   0.13909   0.14696   0.16499   0.17065
 Alpha virt. eigenvalues --    0.20141   0.20836   0.23202   0.24045   0.25434

  Beta  occ. eigenvalues --  -19.66467 -14.80669 -14.74537 -10.62923 -10.58052
  Beta  occ. eigenvalues --  -10.57362 -10.55324  -1.23454  -1.01945  -0.96372
  Beta  occ. eigenvalues --   -0.88303  -0.75774  -0.67814  -0.67046  -0.61540
  Beta  occ. eigenvalues --   -0.58434  -0.55039  -0.52236  -0.50255  -0.47463
  Beta  occ. eigenvalues --   -0.46481  -0.43852  -0.41479  -0.38531  -0.33806
  Beta  occ. eigenvalues --   -0.31608
  Beta virt. eigenvalues --   -0.03735   0.03035   0.06422   0.07961   0.09540
  Beta virt. eigenvalues --    0.11072   0.11840   0.13530   0.14431   0.16033
  Beta virt. eigenvalues --    0.16595   0.19505   0.20541   0.22506   0.23427

 Mulliken charges and spin densities:
               1          2
     1  C   -0.404970   1.041716
     2  C   -0.116590  -0.032811
     3  C   -0.122312   0.020035
     4  N   -0.023256   0.003643
     5  O   -0.202998   0.001726
     6  C    0.094917  -0.008190
     7  N   -0.538796   0.005662
     8  H    0.202786  -0.037629
     9  H    0.172591  -0.038148
    10  H    0.156112   0.043491
    11  H    0.159007   0.001080
    12  H    0.135580   0.000867
    13  H    0.239931   0.000245
    14  H    0.247997  -0.001686
 Sum of Mulliken charges =  -0.00000   1.00000

 Dipole moment (field-independent basis, Debye):
    X=             -1.2381    Y=             -1.9462    Z=              0.3640  Tot=              2.3352
 Quadrupole moment (field-independent basis, Debye-Ang):
   XX=            -36.6895   YY=            -49.6832   ZZ=            -40.7124
   XY=             -2.8097   XZ=              1.1787   YZ=              2.2058

 Normal termination of Gaussian 16 at Mon Sep 11 12:30:05 2023.
