 Gaussian 16, Revision C.01,
 Gaussian 16:  ES64L-G16RevC.01  3-Jul-2019

 -------------------------------------------------
 # um062x Def2TZVP stable=opt Geom=ModRedun NoSymm
 -------------------------------------------------

 ---------------------------------------------
 TS_ts_guess_3iwCru_template_11-21_1-11_sp_g16
 ---------------------------------------------
 Symbolic Z-matrix:
 Charge =  0 Multiplicity = 2

                          Input orientation:
 ---------------------------------------------------------------------
 Center     Atomic      Atomic             Coordinates (Angstroms)
 Number     Number       Type             X           Y           Z
 ---------------------------------------------------------------------
      1          6           0       -2.002939    1.454974    1.585201
      2          6           0       -0.971056    1.584688    0.485634
      3          6           0       -1.380252    2.519018   -0.631306
      4          6           0        0.416475    1.858500    1.047215
      5          7           0        1.444228    2.024674    0.045862
      6          6           0        1.811713    0.879413   -0.754416
      7          6           0        1.984413    3.239886   -0.242058
      8          8           0        2.788433    3.454754   -1.116995
      9          1           0       -1.666507    0.766474    2.375794
     10          1           0       -2.188823    2.433213    2.062406
     11          1           0       -2.965318    1.093234    1.193376
     12          1           0       -0.973076    0.395656   -0.079878
     13          1           0       -2.369990    2.249283   -1.029096
     14          1           0       -0.658101    2.502727   -1.461182
     15          1           0       -1.441938    3.560042   -0.266162
     16          1           0        0.377341    2.788428    1.645252
     17          1           0        0.695722    1.036653    1.726559
     18          1           0        2.793802    1.065780   -1.204499
     19          1           0        1.842206   -0.013572   -0.113012
     20          1           0        1.084971    0.703999   -1.567693
     21          1           0        1.606594    4.037757    0.439581
     22          6           0       -1.394314   -0.771548   -0.761132
     23          6           0       -0.337816   -1.852132   -0.848436
     24          6           0       -0.951772   -3.127030   -1.382356
     25          7           0       -1.129631   -4.024119   -0.496897
     26          8           0       -0.626561   -3.593252    0.703285
     27          6           0        0.164873   -2.399002    0.500513
     28          7           0        0.066946   -1.501665    1.597702
     29          1           0       -2.280356   -1.057917   -0.176210
     30          1           0       -1.677968   -0.346872   -1.732396
     31          1           0        0.502769   -1.515134   -1.468241
     32          1           0       -1.322570   -3.287703   -2.395607
     33          1           0        1.213908   -2.726819    0.402954
     34          1           0        0.421762   -1.937287    2.446446
     35          1           0       -0.907926   -1.253802    1.763673
 ---------------------------------------------------------------------

 SCF Done:  E(UM062X) =  -707.626953763     A.U. after   19 cycles

 Alpha  occ. eigenvalues --  -19.66973 -19.59297 -14.81018 -14.78027 -14.75937
 Alpha  occ. eigenvalues --  -10.63538 -10.63515 -10.58356 -10.58311 -10.57439
 Alpha  occ. eigenvalues --  -10.57140 -10.56428 -10.56305 -10.54757 -10.54179
 Alpha  occ. eigenvalues --   -1.24069  -1.16341  -1.05727  -1.03317  -0.96749
 Alpha  occ. eigenvalues --   -0.92360  -0.89549  -0.82293  -0.79741  -0.79149
 Alpha  occ. eigenvalues --   -0.79023  -0.69354  -0.68571  -0.66338  -0.64614
 Alpha  occ. eigenvalues --   -0.62995  -0.60104  -0.59418  -0.57195  -0.56030
 Alpha  occ. eigenvalues --   -0.54970  -0.54302  -0.53393  -0.50701  -0.50175
 Alpha  occ. eigenvalues --   -0.49349  -0.47957  -0.47463  -0.47018  -0.46091
 Alpha  occ. eigenvalues --   -0.45906  -0.45779  -0.45551  -0.45040  -0.43027
 Alpha  occ. eigenvalues --   -0.42466  -0.41855  -0.41710  -0.39414  -0.34545
 Alpha  occ. eigenvalues --   -0.33619  -0.31951  -0.30607  -0.24163
 Alpha virt. eigenvalues --    0.02648   0.04179   0.05362   0.05772   0.07217
 Alpha virt. eigenvalues --    0.08096   0.09279   0.09599   0.09894   0.10399
 Alpha virt. eigenvalues --    0.11733   0.12009   0.12530   0.13368   0.13539

  Beta  occ. eigenvalues --  -19.66963 -19.59298 -14.80973 -14.78024 -14.75938
  Beta  occ. eigenvalues --  -10.63537 -10.63504 -10.58374 -10.58270 -10.57464
  Beta  occ. eigenvalues --  -10.57140 -10.55918 -10.55726 -10.54784 -10.54202
  Beta  occ. eigenvalues --   -1.23994  -1.16340  -1.05676  -1.03279  -0.96554
  Beta  occ. eigenvalues --   -0.91473  -0.89013  -0.82213  -0.79584  -0.78948
  Beta  occ. eigenvalues --   -0.77957  -0.68730  -0.68352  -0.65931  -0.63841
  Beta  occ. eigenvalues --   -0.62881  -0.59585  -0.59322  -0.56702  -0.55742
  Beta  occ. eigenvalues --   -0.54722  -0.53967  -0.52634  -0.50483  -0.49567
  Beta  occ. eigenvalues --   -0.49138  -0.47791  -0.47134  -0.46664  -0.45916
  Beta  occ. eigenvalues --   -0.45586  -0.45423  -0.45245  -0.44791  -0.42258
  Beta  occ. eigenvalues --   -0.42191  -0.41520  -0.40644  -0.38410  -0.34226
  Beta  occ. eigenvalues --   -0.33596  -0.31770  -0.30475
  Beta virt. eigenvalues --   -0.05513   0.03004   0.04466   0.05333   0.05736
  Beta virt. eigenvalues --    0.07129   0.07891   0.09249   0.09563   0.09797
  Beta virt. eigenvalues --    0.10413   0.11664   0.11948   0.12356   0.13325

 Mulliken charges and spin densities:
               1          2
     1  C   -0.456697  -0.021158
     2  C    0.029949   0.498545
     3  C   -0.485424  -0.022904
     4  C   -0.271894  -0.033600
     5  N   -0.093128   0.004736
     6  C   -0.391083   0.000468
     7  C    0.167022  -0.000249
     8  O   -0.370466  -0.000303
     9  H    0.146090   0.002807
    10  H    0.160717   0.020682
    11  H    0.163922   0.004841
    12  H    0.005093  -0.130228
    13  H    0.157934   0.002794
    14  H    0.173206   0.003531
    15  H    0.161165   0.021992
    16  H    0.180531   0.025655
    17  H    0.173286   0.007563
    18  H    0.189526  -0.000038
    19  H    0.164658   0.000527
    20  H    0.150334   0.000350
    21  H    0.090956  -0.000448
    22  C   -0.532313   0.651171
    23  C   -0.043990  -0.031394
    24  C   -0.107286  -0.002354
    25  N   -0.029391   0.036373
    26  O   -0.199318   0.001321
    27  C    0.010639   0.006366
    28  N   -0.519861   0.001626
    29  H    0.217339  -0.025683
    30  H    0.189337  -0.028070
    31  H    0.168264   0.005716
    32  H    0.163656   0.000715
    33  H    0.144419  -0.001162
    34  H    0.248593  -0.000153
    35  H    0.244217  -0.000036
 Sum of Mulliken charges =  -0.00000   1.00000

 Dipole moment (field-independent basis, Debye):
    X=             -2.3828    Y=              0.4049    Z=              1.6460  Tot=              2.9242
 Quadrupole moment (field-independent basis, Debye-Ang):
   XX=           -103.0147   YY=           -120.1663   ZZ=            -88.5751
   XY=            -19.3702   XZ=              6.4309   YZ=             10.4748

 Normal termination of Gaussian 16 at Mon Sep 11 12:58:33 2023.
